
     Program PWSCF v.6.5 starts on 30Oct2020 at 20:38:43

     This program is part of the open-source Quantum ESPRESSO suite
     for quantum simulation of materials; please cite
         "P. Giannozzi et al., J. Phys.:Condens. Matter 21 395502 (2009);
         "P. Giannozzi et al., J. Phys.:Condens. Matter 29 465901 (2017);
          URL http://www.quantum-espresso.org",
     in publications or presentations arising from this work. More details at
     http://www.quantum-espresso.org/quote

     Parallel version (MPI), running on     1 processors

     MPI processes distributed on     1 nodes
     Reading input from halite.in

     Current dimensions of program PWSCF are:
     Max number of different atomic species (ntypx) = 10
     Max number of k-points (npk) =  40000
     Max angular momentum in pseudopotentials (lmaxx) =  3
     Message from routine volume:
     axis vectors are left-handed

     IMPORTANT: XC functional enforced from input :
     Exchange-correlation= PBE
                           (   1   4   3   4   0   0   0)
     Any further DFT definition will be discarded
     Please, verify this is what you really want

               file Na.pbe-spn-kjpaw_psl.1.0.0.UPF: wavefunction(s)  2P renormalized
               file Cl.pbe-n-kjpaw_psl.1.0.0.UPF: wavefunction(s)  3S 3P renormalized

     Subspace diagonalization in iterative solution of the eigenvalue problem:
     a serial algorithm will be used

     Message from routine setup:
     using ibrav=0 with symmetry is DISCOURAGED, use correct ibrav instead

     G-vector sticks info
     --------------------
     sticks:   dense  smooth     PW     G-vecs:    dense   smooth      PW
     Sum        2347    1555    451                75089    40821    6375



     bravais-lattice index     =            0
     lattice parameter (alat)  =      10.6591  a.u.
     unit-cell volume          =     302.7633 (a.u.)^3
     number of atoms/cell      =            2
     number of atomic types    =            2
     number of electrons       =        16.00
     number of Kohn-Sham states=           12
     kinetic-energy cutoff     =     100.0000  Ry
     charge density cutoff     =     600.0000  Ry
     convergence threshold     =      1.0E-08
     mixing beta               =       0.7000
     number of iterations used =            8  plain     mixing
     Exchange-correlation= PBE
                           (   1   4   3   4   0   0   0)

     celldm(1)=  10.659114  celldm(2)=   0.000000  celldm(3)=   0.000000
     celldm(4)=   0.000000  celldm(5)=   0.000000  celldm(6)=   0.000000

     crystal axes: (cart. coord. in units of alat)
               a(1) = (   0.500000   0.500000   0.000000 )
               a(2) = (   0.500000   0.000000   0.500000 )
               a(3) = (   0.000000   0.500000   0.500000 )

     reciprocal axes: (cart. coord. in units 2 pi/alat)
               b(1) = (  1.000000  1.000000 -1.000000 )
               b(2) = (  1.000000 -1.000000  1.000000 )
               b(3) = ( -1.000000  1.000000  1.000000 )


     PseudoPot. # 1 for Na read from file:
     ./Na.pbe-spn-kjpaw_psl.1.0.0.UPF
     MD5 check sum: 05b4deb74e3932c23ab016979dc8b5d4
     Pseudo is Projector augmented-wave + core cor, Zval =  9.0
     Generated using "atomic" code by A. Dal Corso v.6.3
     Shape of augmentation charge: PSQ
     Using radial grid of 1121 points,  4 beta functions with:
                l(1) =   0
                l(2) =   0
                l(3) =   1
                l(4) =   1
     Q(r) pseudized with 0 coefficients


     PseudoPot. # 2 for Cl read from file:
     ./Cl.pbe-n-kjpaw_psl.1.0.0.UPF
     MD5 check sum: 530da96d25dcb7781b0586ca00827062
     Pseudo is Projector augmented-wave + core cor, Zval =  7.0
     Generated using "atomic" code by A. Dal Corso v.6.3
     Shape of augmentation charge: PSQ
     Using radial grid of 1157 points,  6 beta functions with:
                l(1) =   0
                l(2) =   0
                l(3) =   1
                l(4) =   1
                l(5) =   2
                l(6) =   2
     Q(r) pseudized with 0 coefficients


     atomic species   valence    mass     pseudopotential
        Na             9.00    22.98900     Na( 1.00)
        Cl             7.00    35.45150     Cl( 1.00)

     48 Sym. Ops., with inversion, found



   Cartesian axes

     site n.     atom                  positions (alat units)
         1           Na  tau(   1) = (   0.0000000   0.0000000   0.0000000  )
         2           Cl  tau(   2) = (   0.5000000   0.5000000   0.5000000  )

     number of k points=    56  Marzari-Vanderbilt smearing, width (Ry)=  0.0050
                       cart. coord. in units 2pi/alat
        k(    1) = (   0.0000000   0.0000000   0.0000000), wk =   0.0015026
        k(    2) = (  -0.0909091   0.0909091   0.0909091), wk =   0.0120210
        k(    3) = (  -0.1818182   0.1818182   0.1818182), wk =   0.0120210
        k(    4) = (  -0.2727273   0.2727273   0.2727273), wk =   0.0120210
        k(    5) = (  -0.3636364   0.3636364   0.3636364), wk =   0.0120210
        k(    6) = (  -0.4545455   0.4545455   0.4545455), wk =   0.0120210
        k(    7) = (   0.0000000   0.0000000   0.1818182), wk =   0.0090158
        k(    8) = (  -0.0909091   0.0909091   0.2727273), wk =   0.0360631
        k(    9) = (  -0.1818182   0.1818182   0.3636364), wk =   0.0360631
        k(   10) = (  -0.2727273   0.2727273   0.4545455), wk =   0.0360631
        k(   11) = (  -0.3636364   0.3636364   0.5454545), wk =   0.0360631
        k(   12) = (   0.5454545  -0.5454545  -0.3636364), wk =   0.0360631
        k(   13) = (   0.4545455  -0.4545455  -0.2727273), wk =   0.0360631
        k(   14) = (   0.3636364  -0.3636364  -0.1818182), wk =   0.0360631
        k(   15) = (   0.2727273  -0.2727273  -0.0909091), wk =   0.0360631
        k(   16) = (   0.1818182  -0.1818182  -0.0000000), wk =   0.0180316
        k(   17) = (   0.0000000   0.0000000   0.3636364), wk =   0.0090158
        k(   18) = (  -0.0909091   0.0909091   0.4545455), wk =   0.0360631
        k(   19) = (  -0.1818182   0.1818182   0.5454545), wk =   0.0360631
        k(   20) = (  -0.2727273   0.2727273   0.6363636), wk =   0.0360631
        k(   21) = (   0.6363636  -0.6363636  -0.2727273), wk =   0.0360631
        k(   22) = (   0.5454545  -0.5454545  -0.1818182), wk =   0.0360631
        k(   23) = (   0.4545455  -0.4545455  -0.0909091), wk =   0.0360631
        k(   24) = (   0.3636364  -0.3636364   0.0000000), wk =   0.0180316
        k(   25) = (   0.0000000   0.0000000   0.5454545), wk =   0.0090158
        k(   26) = (  -0.0909091   0.0909091   0.6363636), wk =   0.0360631
        k(   27) = (  -0.1818182   0.1818182   0.7272727), wk =   0.0360631
        k(   28) = (   0.7272727  -0.7272727  -0.1818182), wk =   0.0360631
        k(   29) = (   0.6363636  -0.6363636  -0.0909091), wk =   0.0360631
        k(   30) = (   0.5454545  -0.5454545   0.0000000), wk =   0.0180316
        k(   31) = (   0.0000000   0.0000000   0.7272727), wk =   0.0090158
        k(   32) = (  -0.0909091   0.0909091   0.8181818), wk =   0.0360631
        k(   33) = (   0.8181818  -0.8181818  -0.0909091), wk =   0.0360631
        k(   34) = (   0.7272727  -0.7272727   0.0000000), wk =   0.0180316
        k(   35) = (   0.0000000   0.0000000   0.9090909), wk =   0.0090158
        k(   36) = (   0.9090909  -0.9090909  -0.0000000), wk =   0.0180316
        k(   37) = (   0.0000000   0.1818182   0.3636364), wk =   0.0360631
        k(   38) = (  -0.0909091   0.2727273   0.4545455), wk =   0.0721262
        k(   39) = (  -0.1818182   0.3636364   0.5454545), wk =   0.0721262
        k(   40) = (   0.7272727  -0.5454545  -0.3636364), wk =   0.0721262
        k(   41) = (   0.0000000   0.1818182   0.5454545), wk =   0.0360631
        k(   42) = (  -0.0909091   0.2727273   0.6363636), wk =   0.0721262
        k(   43) = (   0.8181818  -0.6363636  -0.2727273), wk =   0.0721262
        k(   44) = (   0.7272727  -0.5454545  -0.1818182), wk =   0.0721262
        k(   45) = (   0.6363636  -0.4545455  -0.0909091), wk =   0.0721262
        k(   46) = (   0.5454545  -0.3636364   0.0000000), wk =   0.0360631
        k(   47) = (   0.0000000   0.1818182   0.7272727), wk =   0.0360631
        k(   48) = (   0.9090909  -0.7272727  -0.1818182), wk =   0.0721262
        k(   49) = (   0.8181818  -0.6363636  -0.0909091), wk =   0.0721262
        k(   50) = (   0.7272727  -0.5454545   0.0000000), wk =   0.0360631
        k(   51) = (   1.0000000  -0.8181818  -0.0909091), wk =   0.0360631
        k(   52) = (   0.9090909  -0.7272727   0.0000000), wk =   0.0360631
        k(   53) = (   1.0000000  -0.6363636  -0.2727273), wk =   0.0360631
        k(   54) = (   0.9090909  -0.5454545  -0.1818182), wk =   0.0721262
        k(   55) = (   1.0000000  -0.6363636  -0.0909091), wk =   0.0360631
        k(   56) = (   0.9090909  -0.5454545   0.0000000), wk =   0.0360631

     Dense  grid:    75089 G-vectors     FFT dimensions: (  60,  60,  60)

     Smooth grid:    40821 G-vectors     FFT dimensions: (  48,  48,  48)

     Estimated max dynamical RAM per process >     340.44 MB

     Initial potential from superposition of free atoms

     starting charge   15.99370, renormalised to   16.00000
     Starting wfcs are    9 randomized atomic wfcs +    3 random wfcs
     Checking if some PAW data can be deallocated...

     total cpu time spent up to now is        7.4 secs

     Self-consistent Calculation

     iteration #  1     ecut=   100.00 Ry     beta= 0.70
     Davidson diagonalization with overlap
     ethr =  1.00E-02,  avg # of iterations =  5.6

     Threshold (ethr) on eigenvalues was too large:
     Diagonalizing with lowered threshold

     Davidson diagonalization with overlap
     ethr =  3.38E-04,  avg # of iterations =  1.2

     total cpu time spent up to now is       30.1 secs

     total energy              =    -188.83272736 Ry
     Harris-Foulkes estimate   =    -188.86430340 Ry
     estimated scf accuracy    <       0.05140153 Ry

     iteration #  2     ecut=   100.00 Ry     beta= 0.70
     Davidson diagonalization with overlap
     ethr =  3.21E-04,  avg # of iterations =  2.1

     total cpu time spent up to now is       40.8 secs

     total energy              =    -188.84702506 Ry
     Harris-Foulkes estimate   =    -188.85400360 Ry
     estimated scf accuracy    <       0.01286142 Ry

     iteration #  3     ecut=   100.00 Ry     beta= 0.70
     Davidson diagonalization with overlap
     ethr =  8.04E-05,  avg # of iterations =  2.1

     total cpu time spent up to now is       51.7 secs

     total energy              =    -188.84992851 Ry
     Harris-Foulkes estimate   =    -188.84980607 Ry
     estimated scf accuracy    <       0.00026044 Ry

     iteration #  4     ecut=   100.00 Ry     beta= 0.70
     Davidson diagonalization with overlap
     ethr =  1.63E-06,  avg # of iterations =  4.1

     total cpu time spent up to now is       66.0 secs

     total energy              =    -188.84998444 Ry
     Harris-Foulkes estimate   =    -188.84998269 Ry
     estimated scf accuracy    <       0.00000149 Ry

     iteration #  5     ecut=   100.00 Ry     beta= 0.70
     Davidson diagonalization with overlap
     ethr =  9.29E-09,  avg # of iterations =  3.1

     total cpu time spent up to now is       78.8 secs

     total energy              =    -188.84998570 Ry
     Harris-Foulkes estimate   =    -188.84998554 Ry
     estimated scf accuracy    <       0.00000011 Ry

     iteration #  6     ecut=   100.00 Ry     beta= 0.70
     Davidson diagonalization with overlap
     ethr =  6.79E-10,  avg # of iterations =  2.6

     total cpu time spent up to now is       89.6 secs

     End of self-consistent calculation

          k = 0.0000 0.0000 0.0000 (  5029 PWs)   bands (ev):

   -47.9564 -19.8693 -19.8693 -19.8693 -11.6948   0.9617   0.9617   0.9617
     6.0644  12.0010  12.0010  12.0010

          k =-0.0909 0.0909 0.0909 (  5062 PWs)   bands (ev):

   -47.9564 -19.8717 -19.8695 -19.8695 -11.6696   0.7554   0.9396   0.9396
     6.3409  11.6863  12.1108  12.1108

          k =-0.1818 0.1818 0.1818 (  5083 PWs)   bands (ev):

   -47.9562 -19.8779 -19.8700 -19.8700 -11.6011   0.2727   0.8814   0.8814
     7.0007  11.1651  12.2999  12.2999

          k =-0.2727 0.2727 0.2727 (  5105 PWs)   bands (ev):

   -47.9560 -19.8860 -19.8705 -19.8705 -11.5088  -0.2614   0.8076   0.8076
     7.6935  10.9214  12.2351  12.2351

          k =-0.3636 0.3636 0.3636 (  5114 PWs)   bands (ev):

   -47.9558 -19.8934 -19.8711 -19.8711 -11.4214  -0.6918   0.7419   0.7419
     8.0997  11.1418  12.0220  12.0220

          k =-0.4545 0.4545 0.4545 (  5108 PWs)   bands (ev):

   -47.9557 -19.8978 -19.8714 -19.8714 -11.3681  -0.9286   0.7038   0.7038
     8.2172  11.5213  11.8820  11.8820

          k = 0.0000 0.0000 0.1818 (  5077 PWs)   bands (ev):

   -47.9563 -19.8716 -19.8700 -19.8700 -11.6616   0.7385   0.9086   0.9086
     6.4316  11.5212  12.1947  12.1947

          k =-0.0909 0.0909 0.2727 (  5077 PWs)   bands (ev):

   -47.9562 -19.8761 -19.8707 -19.8702 -11.6084   0.3811   0.8437   0.8606
     6.9642  11.0663  12.3545  12.4168

          k =-0.1818 0.1818 0.3636 (  5112 PWs)   bands (ev):

   -47.9560 -19.8833 -19.8714 -19.8707 -11.5253  -0.1064   0.7674   0.7856
     7.6701  10.7511  12.1061  12.4700

          k =-0.2727 0.2727 0.4545 (  5107 PWs)   bands (ev):

   -47.9558 -19.8906 -19.8719 -19.8715 -11.4372  -0.5453   0.6962   0.7039
     8.2038  10.8447  11.7591  12.2883

          k =-0.3636 0.3636 0.5455 (  5110 PWs)   bands (ev):

   -47.9557 -19.8958 -19.8722 -19.8720 -11.3730  -0.8303   0.6209   0.6717
     8.4095  11.2045  11.6277  12.0957

          k = 0.5455-0.5455-0.3636 (  5115 PWs)   bands (ev):

   -47.9556 -19.8972 -19.8728 -19.8717 -11.3550  -0.9046   0.5820   0.6795
     8.4456  11.3080  11.6889  12.0148

          k = 0.4545-0.4545-0.2727 (  5117 PWs)   bands (ev):

   -47.9557 -19.8944 -19.8729 -19.8711 -11.3900  -0.7548   0.5912   0.7252
     8.3822  11.1494  11.6605  12.0842

          k = 0.3636-0.3636-0.1818 (  5097 PWs)   bands (ev):

   -47.9559 -19.8884 -19.8726 -19.8704 -11.4651  -0.4110   0.6480   0.7962
     8.0748  10.8205  11.9102  12.2951

          k = 0.2727-0.2727-0.0909 (  5102 PWs)   bands (ev):

   -47.9561 -19.8810 -19.8718 -19.8698 -11.5547   0.0510   0.7407   0.8711
     7.4374  10.8953  12.1982  12.4946

          k = 0.1818-0.1818-0.0000 (  5074 PWs)   bands (ev):

   -47.9563 -19.8747 -19.8706 -19.8694 -11.6303   0.4987   0.8506   0.9253
     6.7456  11.3045  12.2555  12.2798

          k = 0.0000 0.0000 0.3636 (  5085 PWs)   bands (ev):

   -47.9561 -19.8770 -19.8717 -19.8717 -11.5748   0.2587   0.7720   0.7720
     7.3082  10.6518  12.4763  12.7413

          k =-0.0909 0.0909 0.4545 (  5102 PWs)   bands (ev):

   -47.9560 -19.8817 -19.8726 -19.8724 -11.5096  -0.0640   0.6824   0.6908
     7.8960  10.3019  11.8698  12.9746

          k =-0.1818 0.1818 0.5455 (  5101 PWs)   bands (ev):

   -47.9558 -19.8875 -19.8734 -19.8733 -11.4325  -0.4081   0.5560   0.6258
     8.4946  10.2627  11.3736  12.8714

          k =-0.2727 0.2727 0.6364 (  5122 PWs)   bands (ev):

   -47.9556 -19.8922 -19.8747 -19.8734 -11.3680  -0.6602   0.4174   0.5955
     8.8340  10.5793  11.1546  12.6400

          k = 0.6364-0.6364-0.2727 (  5119 PWs)   bands (ev):

   -47.9556 -19.8942 -19.8760 -19.8729 -11.3378  -0.7616   0.3133   0.6081
     8.9689  10.6972  11.3594  12.4695

          k = 0.5455-0.5455-0.1818 (  5115 PWs)   bands (ev):

   -47.9556 -19.8931 -19.8766 -19.8720 -11.3527  -0.6965   0.2828   0.6603
     8.9944  10.8333  11.1697  12.4326

          k = 0.4545-0.4545-0.0909 (  5123 PWs)   bands (ev):

   -47.9557 -19.8896 -19.8761 -19.8710 -11.4074  -0.4936   0.3517   0.7376
     8.7589  10.6804  11.2456  12.5527

          k = 0.3636-0.3636 0.0000 (  5104 PWs)   bands (ev):

   -47.9559 -19.8851 -19.8743 -19.8701 -11.4829  -0.2204   0.5226   0.8166
     8.1312  10.6347  11.7516  12.8003

          k = 0.0000 0.0000 0.5455 (  5089 PWs)   bands (ev):

   -47.9558 -19.8829 -19.8739 -19.8739 -11.4664  -0.2055   0.6042   0.6042
     8.2373   9.8761  11.6039  13.5589

          k =-0.0909 0.0909 0.6364 (  5114 PWs)   bands (ev):

   -47.9557 -19.8861 -19.8752 -19.8748 -11.4086  -0.4100   0.4851   0.5348
     8.6351   9.6804  11.3470  13.7103

          k =-0.1818 0.1818 0.7273 (  5108 PWs)   bands (ev):

   -47.9555 -19.8889 -19.8771 -19.8750 -11.3544  -0.5503   0.2852   0.5023
     8.9741   9.8544  11.1724  13.4661

          k = 0.7273-0.7273-0.1818 (  5108 PWs)   bands (ev):

   -47.9555 -19.8900 -19.8796 -19.8745 -11.3216  -0.5756   0.0616   0.5155
     9.2295  10.1905  11.1809  13.1807

          k = 0.6364-0.6364-0.0909 (  5111 PWs)   bands (ev):

   -47.9555 -19.8897 -19.8812 -19.8734 -11.3214  -0.5172  -0.0686   0.5708
     9.4956  10.3545  11.0762  12.9599

          k = 0.5455-0.5455 0.0000 (  5122 PWs)   bands (ev):

   -47.9556 -19.8897 -19.8798 -19.8721 -11.3536  -0.5022   0.0522   0.6531
     9.4290  10.6405  10.7154  12.7864

          k = 0.0000 0.0000 0.7273 (  5093 PWs)   bands (ev):

   -47.9556 -19.8871 -19.8760 -19.8760 -11.3727  -0.5244   0.4598   0.4598
     8.6159   9.3286  11.5883  14.5527

          k =-0.0909 0.0909 0.8182 (  5115 PWs)   bands (ev):

   -47.9555 -19.8883 -19.8775 -19.8765 -11.3364  -0.6020   0.3335   0.4222
     8.7066   9.2870  11.7369  14.5017

          k = 0.8182-0.8182-0.0909 (  5103 PWs)   bands (ev):

   -47.9554 -19.8878 -19.8807 -19.8761 -11.3114  -0.5616   0.0811   0.4318
     8.9351   9.6063  11.6909  14.0463

          k = 0.7273-0.7273 0.0000 (  5122 PWs)   bands (ev):

   -47.9554 -19.8853 -19.8851 -19.8749 -11.3058  -0.3945  -0.2137   0.4862
     9.2691  10.0795  11.3973  13.5239

          k = 0.0000 0.0000 0.9091 (  5117 PWs)   bands (ev):

   -47.9554 -19.8891 -19.8772 -19.8772 -11.3200  -0.6760   0.3779   0.3779
     8.5042   9.0486  12.1682  15.5392

          k = 0.9091-0.9091-0.0000 (  5108 PWs)   bands (ev):

   -47.9554 -19.8888 -19.8785 -19.8771 -11.3107  -0.6592   0.2762   0.3814
     8.6101   9.1524  12.1537  14.9347

          k = 0.0000 0.1818 0.3636 (  5092 PWs)   bands (ev):

   -47.9561 -19.8801 -19.8724 -19.8705 -11.5490   0.0823   0.7017   0.8226
     7.5329  10.6846  12.1410  12.7842

          k =-0.0909 0.2727 0.4545 (  5106 PWs)   bands (ev):

   -47.9559 -19.8859 -19.8739 -19.8710 -11.4693  -0.2862   0.5584   0.7551
     8.2185  10.5044  11.6406  12.7265

          k =-0.1818 0.3636 0.5455 (  5115 PWs)   bands (ev):

   -47.9557 -19.8914 -19.8747 -19.8718 -11.3941  -0.6045   0.4556   0.6792
     8.6812  10.7317  11.2594  12.4843

          k = 0.7273-0.5455-0.3636 (  5112 PWs)   bands (ev):

   -47.9556 -19.8947 -19.8749 -19.8725 -11.3485  -0.7857   0.4036   0.6297
     8.8246  10.8782  11.3712  12.3321

          k = 0.0000 0.1818 0.5455 (  5105 PWs)   bands (ev):

   -47.9558 -19.8850 -19.8747 -19.8728 -11.4483  -0.2896   0.5195   0.6406
     8.4407  10.0378  11.4128  13.3326

          k =-0.0909 0.2727 0.6364 (  5122 PWs)   bands (ev):

   -47.9556 -19.8885 -19.8764 -19.8736 -11.3839  -0.4913   0.3500   0.5670
     8.9795  10.0919  11.0052  13.1695

          k = 0.8182-0.6364-0.2727 (  5128 PWs)   bands (ev):

   -47.9555 -19.8909 -19.8777 -19.8742 -11.3372  -0.6096   0.1958   0.5232
     9.2749  10.3564  10.9373  12.9083

          k = 0.7273-0.5455-0.1818 (  5127 PWs)   bands (ev):

   -47.9555 -19.8915 -19.8787 -19.8739 -11.3241  -0.6240   0.1038   0.5370
     9.4336  10.3587  11.1189  12.7426

          k = 0.6364-0.4545-0.0909 (  5108 PWs)   bands (ev):

   -47.9556 -19.8904 -19.8787 -19.8728 -11.3491  -0.5548   0.1335   0.6002
     9.4013  10.5455  10.7353  12.7949

          k = 0.5455-0.3636 0.0000 (  5111 PWs)   bands (ev):

   -47.9557 -19.8883 -19.8769 -19.8717 -11.4036  -0.4387   0.3061   0.6851
     8.9287  10.4038  11.0555  12.8890

          k = 0.0000 0.1818 0.7273 (  5116 PWs)   bands (ev):

   -47.9556 -19.8877 -19.8769 -19.8756 -11.3623  -0.5210   0.3632   0.4558
     8.8864   9.5569  11.3013  13.9149

          k = 0.9091-0.7273-0.1818 (  5121 PWs)   bands (ev):

   -47.9555 -19.8882 -19.8792 -19.8762 -11.3245  -0.5405   0.1535   0.4073
     9.1637   9.7758  11.2336  13.5560

          k = 0.8182-0.6364-0.0909 (  5116 PWs)   bands (ev):

   -47.9554 -19.8873 -19.8823 -19.8757 -11.3074  -0.4432  -0.1084   0.4296
     9.4554  10.1243  11.1657  13.0667

          k = 0.7273-0.5455 0.0000 (  5126 PWs)   bands (ev):

   -47.9555 -19.8879 -19.8824 -19.8743 -11.3167  -0.4098  -0.1604   0.5038
     9.7943  10.2208  10.8447  12.9265

          k = 1.0000-0.8182-0.0909 (  5120 PWs)   bands (ev):

   -47.9554 -19.8883 -19.8782 -19.8777 -11.3145  -0.6148   0.2747   0.3368
     8.7891   9.3060  11.8845  14.2414

          k = 0.9091-0.7273 0.0000 (  5112 PWs)   bands (ev):

   -47.9554 -19.8870 -19.8811 -19.8772 -11.3037  -0.5240   0.0560   0.3483
     9.0819   9.6609  11.6730  13.5059

          k = 1.0000-0.6364-0.2727 (  5126 PWs)   bands (ev):

   -47.9555 -19.8885 -19.8793 -19.8748 -11.3386  -0.4983   0.1223   0.4695
     9.5614  10.1437  10.6136  13.1767

          k = 0.9091-0.5455-0.1818 (  5120 PWs)   bands (ev):

   -47.9554 -19.8879 -19.8810 -19.8760 -11.3114  -0.4482  -0.0522   0.3925
     9.8857  10.1620  10.7152  12.8076

          k = 1.0000-0.6364-0.0909 (  5114 PWs)   bands (ev):

   -47.9554 -19.8864 -19.8807 -19.8783 -11.3038  -0.4447   0.0190   0.2710
     9.4778   9.9870  11.1448  12.9187

          k = 0.9091-0.5455 0.0000 (  5130 PWs)   bands (ev):

   -47.9554 -19.8840 -19.8839 -19.8781 -11.2990  -0.2789  -0.2041   0.2743
     9.7482  10.3409  10.8671  12.4694

     the Fermi energy is     3.7188 ev

!    total energy              =    -188.84998573 Ry
     Harris-Foulkes estimate   =    -188.84998574 Ry
     estimated scf accuracy    <          2.2E-09 Ry

     total all-electron energy =     -1248.137001 Ry

     The total energy is the sum of the following terms:

     one-electron contribution =     -80.91609913 Ry
     hartree contribution      =      47.14337751 Ry
     xc contribution           =     -25.67410694 Ry
     ewald contribution        =     -68.79919271 Ry
     one-center paw contrib.   =     -60.60396446 Ry
     smearing contrib. (-TS)   =       0.00000000 Ry

     convergence has been achieved in   6 iterations

     Forces acting on atoms (cartesian axes, Ry/au):

     atom    1 type  1   force =     0.00000000    0.00000000   -0.00000000
     atom    2 type  2   force =     0.00000000    0.00000000    0.00000000

     Total force =     0.000000     Total SCF correction =     0.000000


     Computing stress (Cartesian axis) and pressure

          total   stress  (Ry/bohr**3)                   (kbar)     P=        8.01
   0.00005446  -0.00000000  -0.00000000            8.01       -0.00       -0.00
  -0.00000000   0.00005446  -0.00000000           -0.00        8.01       -0.00
  -0.00000000  -0.00000000   0.00005446           -0.00       -0.00        8.01


     Writing output data file ./halite.save/

     init_run     :      5.44s CPU      6.04s WALL (       1 calls)
     electrons    :     79.57s CPU     82.27s WALL (       1 calls)
     forces       :      1.76s CPU      1.85s WALL (       1 calls)
     stress       :      4.95s CPU      5.18s WALL (       1 calls)

     Called by init_run:
     wfcinit      :      3.13s CPU      3.19s WALL (       1 calls)
     potinit      :      0.48s CPU      0.50s WALL (       1 calls)
     hinit0       :      1.49s CPU      1.60s WALL (       1 calls)

     Called by electrons:
     c_bands      :     62.89s CPU     64.26s WALL (       7 calls)
     sum_band     :     12.40s CPU     13.18s WALL (       7 calls)
     v_of_rho     :      1.24s CPU      1.30s WALL (       7 calls)
     newd         :      1.75s CPU      2.24s WALL (       7 calls)
     PAW_pot      :      1.79s CPU      1.81s WALL (       7 calls)
     mix_rho      :      0.08s CPU      0.11s WALL (       7 calls)

     Called by c_bands:
     init_us_2    :      1.99s CPU      2.03s WALL (     952 calls)
     cegterg      :     60.41s CPU     61.71s WALL (     392 calls)

     Called by sum_band:
     sum_band:bec :      0.01s CPU      0.01s WALL (     392 calls)
     addusdens    :      2.01s CPU      2.59s WALL (       7 calls)

     Called by *egterg:
     h_psi        :     48.82s CPU     49.89s WALL (    1611 calls)
     s_psi        :      3.36s CPU      3.44s WALL (    1611 calls)
     g_psi        :      0.18s CPU      0.18s WALL (    1163 calls)
     cdiaghg      :      0.48s CPU      0.49s WALL (    1499 calls)

     Called by h_psi:
     h_psi:calbec :      3.81s CPU      3.91s WALL (    1611 calls)
     vloc_psi     :     41.45s CPU     42.33s WALL (    1611 calls)
     add_vuspsi   :      3.34s CPU      3.43s WALL (    1611 calls)

     General routines
     calbec       :      6.18s CPU      6.32s WALL (    2283 calls)
     fft          :      0.56s CPU      0.62s WALL (     115 calls)
     ffts         :      0.03s CPU      0.03s WALL (      14 calls)
     fftw         :     43.60s CPU     44.52s WALL (   30908 calls)
     interpolate  :      0.05s CPU      0.05s WALL (       7 calls)

     Parallel routines

     PWSCF        :   1m32.81s CPU   1m38.84s WALL


   This run was terminated on:  20:40:22  30Oct2020

=------------------------------------------------------------------------------=
   JOB DONE.
=------------------------------------------------------------------------------=
