
     Program PWSCF v.6.5 starts on  9May2021 at 17:34:59 

     This program is part of the open-source Quantum ESPRESSO suite
     for quantum simulation of materials; please cite
         "P. Giannozzi et al., J. Phys.:Condens. Matter 21 395502 (2009);
         "P. Giannozzi et al., J. Phys.:Condens. Matter 29 465901 (2017);
          URL http://www.quantum-espresso.org", 
     in publications or presentations arising from this work. More details at
     http://www.quantum-espresso.org/quote

     Parallel version (MPI), running on     1 processors

     MPI processes distributed on     1 nodes
     Reading input from input-1.in

     Current dimensions of program PWSCF are:
     Max number of different atomic species (ntypx) = 10
     Max number of k-points (npk) =  40000
     Max angular momentum in pseudopotentials (lmaxx) =  3

     IMPORTANT: XC functional enforced from input :
     Exchange-correlation= PBE
                           (   1   4   3   4   0   0   0)
     Any further DFT definition will be discarded
     Please, verify this is what you really want

               file Pb.pbe-dn-kjpaw_psl.0.2.2.UPF: wavefunction(s)  6S renormalized
               file O.pbe-n-kjpaw_psl.0.1.UPF: wavefunction(s)  2P renormalized

     Subspace diagonalization in iterative solution of the eigenvalue problem:
     a serial algorithm will be used

     Message from routine setup:
     using ibrav=0 with symmetry is DISCOURAGED, use correct ibrav instead

     G-vector sticks info
     --------------------
     sticks:   dense  smooth     PW     G-vecs:    dense   smooth      PW
     Sum        4041    1617    437               243931    61665    9099



     bravais-lattice index     =            0
     lattice parameter (alat)  =       7.5105  a.u.
     unit-cell volume          =     535.3237 (a.u.)^3
     number of atoms/cell      =            4
     number of atomic types    =            2
     number of electrons       =        40.00
     number of Kohn-Sham states=           24
     kinetic-energy cutoff     =      90.0000  Ry
     charge density cutoff     =     900.0000  Ry
     convergence threshold     =      1.0E-08
     mixing beta               =       0.7000
     number of iterations used =            8  plain     mixing
     Exchange-correlation= PBE
                           (   1   4   3   4   0   0   0)
     nstep                     =           50


     celldm(1)=   7.510528  celldm(2)=   0.000000  celldm(3)=   0.000000
     celldm(4)=   0.000000  celldm(5)=   0.000000  celldm(6)=   0.000000

     crystal axes: (cart. coord. in units of alat)
               a(1) = (   1.000000   0.000000   0.000000 )  
               a(2) = (   0.000000   1.000000   0.000000 )  
               a(3) = (   0.000000   0.000000   1.263587 )  

     reciprocal axes: (cart. coord. in units 2 pi/alat)
               b(1) = (  1.000000  0.000000  0.000000 )  
               b(2) = (  0.000000  1.000000  0.000000 )  
               b(3) = (  0.000000  0.000000  0.791398 )  


     PseudoPot. # 1 for Pb read from file:
     ./Pb.pbe-dn-kjpaw_psl.0.2.2.UPF
     MD5 check sum: f59221ed870a8203cfe6076f2d6248d0
     Pseudo is Projector augmented-wave + core cor, Zval = 14.0
     Generated using "atomic" code by A. Dal Corso v.5.0.2 svn rev. 9415
     Shape of augmentation charge: PSQ
     Using radial grid of 1281 points,  6 beta functions with: 
                l(1) =   0
                l(2) =   0
                l(3) =   1
                l(4) =   1
                l(5) =   2
                l(6) =   2
     Q(r) pseudized with 0 coefficients 


     PseudoPot. # 2 for O  read from file:
     ./O.pbe-n-kjpaw_psl.0.1.UPF
     MD5 check sum: 833c495a5d0f9b75bf046115549bffff
     Pseudo is Projector augmented-wave + core cor, Zval =  6.0
     Generated using "atomic" code by A. Dal Corso v.6.3
     Shape of augmentation charge: BESSEL
     Using radial grid of 1095 points,  4 beta functions with: 
                l(1) =   0
                l(2) =   0
                l(3) =   1
                l(4) =   1
     Q(r) pseudized with 0 coefficients 


     atomic species   valence    mass     pseudopotential
        Pb            14.00   207.20000     Pb( 1.00)
        O              6.00    15.99900     O ( 1.00)

     16 Sym. Ops., with inversion, found ( 8 have fractional translation)



   Cartesian axes

     site n.     atom                  positions (alat units)
         1           Pb  tau(   1) = (   0.0000000   0.5000000   0.3051637  )
         2           Pb  tau(   2) = (   0.5000000   0.0000000   0.9584233  )
         3           O   tau(   3) = (   0.0000000   0.0000000   0.0000000  )
         4           O   tau(   4) = (   0.5000000   0.5000000   0.0000000  )

     number of k points=    18  Marzari-Vanderbilt smearing, width (Ry)=  0.0050
                       cart. coord. in units 2pi/alat
        k(    1) = (   0.0000000   0.0000000   0.0000000), wk =   0.0160000
        k(    2) = (   0.0000000   0.0000000   0.1582796), wk =   0.0320000
        k(    3) = (   0.0000000   0.0000000   0.3165591), wk =   0.0320000
        k(    4) = (   0.0000000   0.2000000   0.0000000), wk =   0.0640000
        k(    5) = (   0.0000000   0.2000000   0.1582796), wk =   0.1280000
        k(    6) = (   0.0000000   0.2000000   0.3165591), wk =   0.1280000
        k(    7) = (   0.0000000   0.4000000   0.0000000), wk =   0.0640000
        k(    8) = (   0.0000000   0.4000000   0.1582796), wk =   0.1280000
        k(    9) = (   0.0000000   0.4000000   0.3165591), wk =   0.1280000
        k(   10) = (   0.2000000   0.2000000   0.0000000), wk =   0.0640000
        k(   11) = (   0.2000000   0.2000000   0.1582796), wk =   0.1280000
        k(   12) = (   0.2000000   0.2000000   0.3165591), wk =   0.1280000
        k(   13) = (   0.2000000   0.4000000   0.0000000), wk =   0.1280000
        k(   14) = (   0.2000000   0.4000000   0.1582796), wk =   0.2560000
        k(   15) = (   0.2000000   0.4000000   0.3165591), wk =   0.2560000
        k(   16) = (   0.4000000   0.4000000   0.0000000), wk =   0.0640000
        k(   17) = (   0.4000000   0.4000000   0.1582796), wk =   0.1280000
        k(   18) = (   0.4000000   0.4000000   0.3165591), wk =   0.1280000

     Dense  grid:   243931 G-vectors     FFT dimensions: (  72,  72,  96)

     Smooth grid:    61665 G-vectors     FFT dimensions: (  48,  48,  60)

     Estimated max dynamical RAM per process >     961.12 MB

     Initial potential from superposition of free atoms

     starting charge   39.99529, renormalised to   40.00000
     Starting wfcs are   26 randomized atomic wfcs
     Checking if some PAW data can be deallocated... 

     total cpu time spent up to now is       44.4 secs

     Self-consistent Calculation

     iteration #  1     ecut=    90.00 Ry     beta= 0.70
     Davidson diagonalization with overlap
     ethr =  1.00E-02,  avg # of iterations =  2.2

     total cpu time spent up to now is       60.0 secs

     total energy              =   -1823.57440576 Ry
     Harris-Foulkes estimate   =   -1824.77247159 Ry
     estimated scf accuracy    <       1.46500197 Ry

     iteration #  2     ecut=    90.00 Ry     beta= 0.70
     Davidson diagonalization with overlap
     ethr =  3.66E-03,  avg # of iterations =  4.7

     total cpu time spent up to now is       79.3 secs

     total energy              =   -1822.76820061 Ry
     Harris-Foulkes estimate   =   -1825.89176646 Ry
     estimated scf accuracy    <       9.64632061 Ry

     iteration #  3     ecut=    90.00 Ry     beta= 0.70
     Davidson diagonalization with overlap
     ethr =  3.66E-03,  avg # of iterations =  3.1

     total cpu time spent up to now is       97.4 secs

     total energy              =   -1824.46363965 Ry
     Harris-Foulkes estimate   =   -1824.49194601 Ry
     estimated scf accuracy    <       0.12722683 Ry

     iteration #  4     ecut=    90.00 Ry     beta= 0.70
     Davidson diagonalization with overlap
     ethr =  3.18E-04,  avg # of iterations =  3.6

     total cpu time spent up to now is      112.6 secs

     total energy              =   -1824.46183864 Ry
     Harris-Foulkes estimate   =   -1824.47727538 Ry
     estimated scf accuracy    <       0.03625417 Ry

     iteration #  5     ecut=    90.00 Ry     beta= 0.70
     Davidson diagonalization with overlap
     ethr =  9.06E-05,  avg # of iterations =  3.3

     total cpu time spent up to now is      128.8 secs

     total energy              =   -1824.47082891 Ry
     Harris-Foulkes estimate   =   -1824.47129018 Ry
     estimated scf accuracy    <       0.00151832 Ry

     iteration #  6     ecut=    90.00 Ry     beta= 0.70
     Davidson diagonalization with overlap
     ethr =  3.80E-06,  avg # of iterations =  4.9

     total cpu time spent up to now is      152.1 secs

     total energy              =   -1824.47189471 Ry
     Harris-Foulkes estimate   =   -1824.47207530 Ry
     estimated scf accuracy    <       0.00038192 Ry

     iteration #  7     ecut=    90.00 Ry     beta= 0.70
     Davidson diagonalization with overlap
     ethr =  9.55E-07,  avg # of iterations =  2.3

     total cpu time spent up to now is      167.4 secs

     total energy              =   -1824.47198329 Ry
     Harris-Foulkes estimate   =   -1824.47199476 Ry
     estimated scf accuracy    <       0.00002788 Ry

     iteration #  8     ecut=    90.00 Ry     beta= 0.70
     Davidson diagonalization with overlap
     ethr =  6.97E-08,  avg # of iterations =  4.0

     total cpu time spent up to now is      184.8 secs

     total energy              =   -1824.47199256 Ry
     Harris-Foulkes estimate   =   -1824.47199266 Ry
     estimated scf accuracy    <       0.00000031 Ry

     iteration #  9     ecut=    90.00 Ry     beta= 0.70
     Davidson diagonalization with overlap
     ethr =  7.80E-10,  avg # of iterations =  4.8

     total cpu time spent up to now is      209.4 secs

     total energy              =   -1824.47199298 Ry
     Harris-Foulkes estimate   =   -1824.47199300 Ry
     estimated scf accuracy    <       0.00000005 Ry

     iteration # 10     ecut=    90.00 Ry     beta= 0.70
     Davidson diagonalization with overlap
     ethr =  1.14E-10,  avg # of iterations =  2.8

     total cpu time spent up to now is      224.5 secs

     End of self-consistent calculation

          k = 0.0000 0.0000 0.0000 (  7729 PWs)   bands (ev):

    -9.4917  -8.9682  -7.2578  -7.2578  -7.2003  -7.1890  -7.1136  -7.0430
    -7.0354  -7.0354  -7.0180  -5.6940   1.6040   1.9797   4.6288   4.6288
     7.1323   7.2607   7.2607   8.8049  11.2233  14.3136  14.3136  14.4185

          k = 0.0000 0.0000 0.1583 (  7745 PWs)   bands (ev):

    -9.4828  -8.9619  -7.2417  -7.2417  -7.2018  -7.1846  -7.1052  -7.0547
    -7.0547  -7.0496  -7.0264  -5.6885   0.7359   3.0985   4.6847   4.6847
     7.1181   7.2513   7.2513   8.5637  10.9889  13.4997  13.4997  14.0628

          k = 0.0000 0.0000 0.3166 (  7692 PWs)   bands (ev):

    -9.4683  -8.9517  -7.2224  -7.2043  -7.2043  -7.1533  -7.0971  -7.0971
    -7.0850  -7.0657  -7.0468  -5.6798   0.1636   4.2131   4.7793   4.7793
     7.0954   7.2331   7.2331   7.9409  10.8781  12.8062  12.8062  13.2198

          k = 0.0000 0.2000 0.0000 (  7729 PWs)   bands (ev):

    -9.4133  -8.9979  -7.2391  -7.2384  -7.1719  -7.1664  -7.1213  -7.0568
    -7.0489  -7.0350  -6.9271  -5.7965   1.4741   2.0027   4.7641   4.8671
     6.5139   6.9919   7.0432   8.7073  12.1116  12.6291  14.4818  14.5283

          k = 0.0000 0.2000 0.1583 (  7715 PWs)   bands (ev):

    -9.4092  -8.9946  -7.2335  -7.2240  -7.1741  -7.1599  -7.1195  -7.0721
    -7.0646  -7.0204  -6.9339  -5.7914   0.8534   2.7190   4.7693   4.9134
     6.5713   6.9842   7.0924   8.5381  11.8753  12.0473  13.8239  15.0476

          k = 0.0000 0.2000 0.3166 (  7721 PWs)   bands (ev):

    -9.4025  -8.9894  -7.2167  -7.1974  -7.1861  -7.1503  -7.1309  -7.0893
    -7.0545  -7.0272  -6.9444  -5.7832   0.3696   3.4359   4.6506   4.9917
     6.6764   6.9696   7.4164   8.0600  11.2991  11.7019  13.2021  14.9950

          k = 0.0000 0.4000 0.0000 (  7718 PWs)   bands (ev):

    -9.2473  -9.0943  -7.1934  -7.1905  -7.1540  -7.1439  -7.1016  -7.0730
    -7.0662  -7.0567  -6.6106  -6.1399   1.4401   1.7820   5.2782   5.5002
     5.9948   6.3090   6.7453   7.7178  12.0335  12.3709  14.9142  15.0944

          k = 0.0000 0.4000 0.1583 (  7722 PWs)   bands (ev):

    -9.2506  -9.0970  -7.2100  -7.1849  -7.1682  -7.1547  -7.0908  -7.0610
    -7.0538  -7.0345  -6.6075  -6.1344   1.2230   1.9375   5.0676   5.5243
     5.9048   6.3117   7.0520   7.8293  11.7952  12.3429  14.7116  15.0623

          k = 0.0000 0.4000 0.3166 (  7732 PWs)   bands (ev):

    -9.2558  -9.1014  -7.2270  -7.2047  -7.1716  -7.1557  -7.0688  -7.0536
    -7.0271  -7.0149  -6.6017  -6.1256   0.9889   2.0796   4.8134   5.5644
     5.7505   6.3153   7.5980   7.8852  11.4380  12.2657  14.3174  15.6676

          k = 0.2000 0.2000 0.0000 (  7718 PWs)   bands (ev):

    -9.3508  -9.0224  -7.2428  -7.1914  -7.1502  -7.1486  -7.1287  -7.0579
    -7.0468  -7.0255  -6.8546  -5.8678   1.2765   1.9115   4.6279   5.4833
     6.1153   6.3878   7.5639   8.5348  12.3431  12.4192  13.4452  13.8445

          k = 0.2000 0.2000 0.1583 (  7734 PWs)   bands (ev):

    -9.3496  -9.0204  -7.2277  -7.2011  -7.1553  -7.1460  -7.1115  -7.0724
    -7.0460  -7.0411  -6.8380  -5.8595   0.8756   2.3453   4.4605   5.5368
     6.3102   6.4815   7.5659   8.3342  12.0826  12.4039  12.4871  14.9374

          k = 0.2000 0.2000 0.3166 (  7709 PWs)   bands (ev):

    -9.3476  -9.0171  -7.2136  -7.1924  -7.1638  -7.1294  -7.1055  -7.0894
    -7.0835  -7.0373  -6.8117  -5.8464   0.4993   2.8418   4.1734   5.6516
     6.1583   7.1685   7.5693   7.9193  11.2696  12.2812  12.4864  15.6774

          k = 0.2000 0.4000 0.0000 (  7729 PWs)   bands (ev):

    -9.2211  -9.1009  -7.1908  -7.1587  -7.1463  -7.1410  -7.0857  -7.0553
    -7.0469  -7.0392  -6.5595  -6.1410   1.1325   1.4857   5.0239   5.7377
     6.2306   6.2807   7.3928   7.6981  11.5457  11.8390  13.9920  14.3931

          k = 0.2000 0.4000 0.1583 (  7725 PWs)   bands (ev):

    -9.2236  -9.1021  -7.1926  -7.1781  -7.1398  -7.1310  -7.0900  -7.0728
    -7.0376  -7.0333  -6.5356  -6.1246   1.0254   1.5899   4.6746   5.5132
     6.3889   6.6712   7.3893   7.6748  11.5981  11.9112  13.5782  14.5799

          k = 0.2000 0.4000 0.3166 (  7716 PWs)   bands (ev):

    -9.2276  -9.1042  -7.2077  -7.1867  -7.1424  -7.1278  -7.0801  -7.0637
    -7.0484  -7.0352  -6.4974  -6.0986   0.8935   1.7223   4.3121   5.2572
     6.4828   7.1389   7.3877   7.6191  11.6138  12.3733  13.1471  14.4946

          k = 0.4000 0.4000 0.0000 (  7700 PWs)   bands (ev):

    -9.1725  -9.1288  -7.1729  -7.1721  -7.1158  -7.0842  -7.0412  -7.0338
    -7.0272  -7.0097  -6.3993  -6.2121   0.7216   0.8924   5.2219   5.5579
     6.6337   7.3477   7.3712   7.8275  10.3582  10.5318  13.8809  14.1943

          k = 0.4000 0.4000 0.1583 (  7704 PWs)   bands (ev):

    -9.1731  -9.1285  -7.1678  -7.1614  -7.1157  -7.0848  -7.0636  -7.0468
    -7.0379  -7.0347  -6.3531  -6.1751   0.7216   0.9403   4.9039   5.3796
     6.7581   7.1873   7.4027   7.8269  10.8255  10.8374  13.8269  14.3712

          k = 0.4000 0.4000 0.3166 (  7706 PWs)   bands (ev):

    -9.1741  -9.1279  -7.1709  -7.1396  -7.1165  -7.0880  -7.0815  -7.0759
    -7.0635  -7.0552  -6.2858  -6.1197   0.7261   1.0167   4.5285   5.1355
     6.6725   7.0134   7.4610   7.8262  11.8370  11.8957  13.1463  14.3046

     the Fermi energy is     9.4532 ev

!    total energy              =   -1824.47199299 Ry
     Harris-Foulkes estimate   =   -1824.47199299 Ry
     estimated scf accuracy    <          3.4E-10 Ry

     total all-electron energy =    -83829.222708 Ry

     The total energy is the sum of the following terms:

     one-electron contribution =    -100.45106543 Ry
     hartree contribution      =      83.37878520 Ry
     xc contribution           =    -103.68718120 Ry
     ewald contribution        =    -227.76093370 Ry
     one-center paw contrib.   =   -1475.95159785 Ry
     smearing contrib. (-TS)   =       0.00000000 Ry

     convergence has been achieved in  10 iterations

     Forces acting on atoms (cartesian axes, Ry/au):

     atom    1 type  1   force =     0.00000000    0.00000000    0.00005248
     atom    2 type  1   force =     0.00000000    0.00000000   -0.00005248
     atom    3 type  2   force =     0.00000000    0.00000000    0.00000000
     atom    4 type  2   force =     0.00000000    0.00000000    0.00000000

     Total force =     0.000074     Total SCF correction =     0.000025
     SCF correction compared to forces is large: reduce conv_thr to get better values


     Computing stress (Cartesian axis) and pressure

          total   stress  (Ry/bohr**3)                   (kbar)     P=       36.66
   0.00029192   0.00000000   0.00000000           42.94        0.00        0.00
   0.00000000   0.00029192   0.00000000            0.00       42.94        0.00
   0.00000000   0.00000000   0.00016383            0.00        0.00       24.10


     BFGS Geometry Optimization

     number of scf cycles    =   1
     number of bfgs steps    =   0

     enthalpy new            =   -1824.4719929879 Ry

     new trust radius        =       0.0337709159 bohr
     new conv_thr            =       0.0000000100 Ry

     new unit-cell volume =    545.39047 a.u.^3 (    80.81853 Ang^3 )
     density =      9.17192 g/cm^3

CELL_PARAMETERS (alat=  7.51052754)
   1.007298013   0.000000000   0.000000000
   0.000000000   1.007298013   0.000000000
   0.000000000   0.000000000   1.268762286

ATOMIC_POSITIONS (crystal)
Pb            0.0000000000        0.5000000000        0.2415113869
Pb            0.5000000000        0.0000000000        0.7584886131
O             0.0000000000        0.0000000000        0.0000000000
O             0.5000000000        0.5000000000        0.0000000000



     Writing output data file ./output.save/
     NEW-OLD atomic charge density approx. for the potential
     extrapolated charge   40.73823, renormalised to   40.00000

     total cpu time spent up to now is      359.4 secs

     Self-consistent Calculation

     iteration #  1     ecut=    90.00 Ry     beta= 0.70
     Davidson diagonalization with overlap
     ethr =  1.00E-06,  avg # of iterations =  6.1

     negative rho (up, down):  3.619E-05 0.000E+00

     total cpu time spent up to now is      394.6 secs

     total energy              =   -1824.32766021 Ry
     Harris-Foulkes estimate   =   -1822.68924903 Ry
     estimated scf accuracy    <       0.14525259 Ry

     iteration #  2     ecut=    90.00 Ry     beta= 0.70
     Davidson diagonalization with overlap
     ethr =  3.63E-04,  avg # of iterations =  4.0

     total cpu time spent up to now is      422.9 secs

     total energy              =   -1824.40401258 Ry
     Harris-Foulkes estimate   =   -1824.64997878 Ry
     estimated scf accuracy    <       0.78850930 Ry

     iteration #  3     ecut=    90.00 Ry     beta= 0.70
     Davidson diagonalization with overlap
     ethr =  3.63E-04,  avg # of iterations =  3.0

     total cpu time spent up to now is      440.4 secs

     total energy              =   -1824.47878052 Ry
     Harris-Foulkes estimate   =   -1824.48568566 Ry
     estimated scf accuracy    <       0.07213217 Ry

     iteration #  4     ecut=    90.00 Ry     beta= 0.70
     Davidson diagonalization with overlap
     ethr =  1.80E-04,  avg # of iterations =  1.0

     total cpu time spent up to now is      455.0 secs

     total energy              =   -1824.47894566 Ry
     Harris-Foulkes estimate   =   -1824.48030929 Ry
     estimated scf accuracy    <       0.04812502 Ry

     iteration #  5     ecut=    90.00 Ry     beta= 0.70
     Davidson diagonalization with overlap
     ethr =  1.20E-04,  avg # of iterations =  1.0

     total cpu time spent up to now is      469.9 secs

     total energy              =   -1824.47722355 Ry
     Harris-Foulkes estimate   =   -1824.47958211 Ry
     estimated scf accuracy    <       0.04157979 Ry

     iteration #  6     ecut=    90.00 Ry     beta= 0.70
     Davidson diagonalization with overlap
     ethr =  1.04E-04,  avg # of iterations =  1.0

     total cpu time spent up to now is      484.5 secs

     total energy              =   -1824.47387039 Ry
     Harris-Foulkes estimate   =   -1824.47772414 Ry
     estimated scf accuracy    <       0.02996100 Ry

     iteration #  7     ecut=    90.00 Ry     beta= 0.70
     Davidson diagonalization with overlap
     ethr =  7.49E-05,  avg # of iterations =  1.0

     total cpu time spent up to now is      498.4 secs

     total energy              =   -1824.47230344 Ry
     Harris-Foulkes estimate   =   -1824.47473961 Ry
     estimated scf accuracy    <       0.01248456 Ry

     iteration #  8     ecut=    90.00 Ry     beta= 0.70
     Davidson diagonalization with overlap
     ethr =  3.12E-05,  avg # of iterations =  1.8

     total cpu time spent up to now is      512.0 secs

     total energy              =   -1824.47264535 Ry
     Harris-Foulkes estimate   =   -1824.47320507 Ry
     estimated scf accuracy    <       0.00271409 Ry

     iteration #  9     ecut=    90.00 Ry     beta= 0.70
     Davidson diagonalization with overlap
     ethr =  6.79E-06,  avg # of iterations =  4.1

     total cpu time spent up to now is      533.3 secs

     total energy              =   -1824.47409688 Ry
     Harris-Foulkes estimate   =   -1824.47414899 Ry
     estimated scf accuracy    <       0.00052611 Ry

     iteration # 10     ecut=    90.00 Ry     beta= 0.70
     Davidson diagonalization with overlap
     ethr =  1.32E-06,  avg # of iterations =  1.6

     total cpu time spent up to now is      546.8 secs

     total energy              =   -1824.47421271 Ry
     Harris-Foulkes estimate   =   -1824.47413192 Ry
     estimated scf accuracy    <       0.00044249 Ry

     iteration # 11     ecut=    90.00 Ry     beta= 0.70
     Davidson diagonalization with overlap
     ethr =  1.11E-06,  avg # of iterations =  2.3

     total cpu time spent up to now is      562.5 secs

     total energy              =   -1824.47403901 Ry
     Harris-Foulkes estimate   =   -1824.47435188 Ry
     estimated scf accuracy    <       0.00135963 Ry

     iteration # 12     ecut=    90.00 Ry     beta= 0.70
     Davidson diagonalization with overlap
     ethr =  1.11E-06,  avg # of iterations =  2.0

     total cpu time spent up to now is      576.7 secs

     total energy              =   -1824.47402515 Ry
     Harris-Foulkes estimate   =   -1824.47408164 Ry
     estimated scf accuracy    <       0.00031493 Ry

     iteration # 13     ecut=    90.00 Ry     beta= 0.70
     Davidson diagonalization with overlap
     ethr =  7.87E-07,  avg # of iterations =  2.3

     total cpu time spent up to now is      591.2 secs

     total energy              =   -1824.47405367 Ry
     Harris-Foulkes estimate   =   -1824.47404318 Ry
     estimated scf accuracy    <       0.00006211 Ry

     iteration # 14     ecut=    90.00 Ry     beta= 0.70
     Davidson diagonalization with overlap
     ethr =  1.55E-07,  avg # of iterations =  3.4

     total cpu time spent up to now is      608.0 secs

     total energy              =   -1824.47405321 Ry
     Harris-Foulkes estimate   =   -1824.47406348 Ry
     estimated scf accuracy    <       0.00007898 Ry

     iteration # 15     ecut=    90.00 Ry     beta= 0.70
     Davidson diagonalization with overlap
     ethr =  1.55E-07,  avg # of iterations =  1.7

     total cpu time spent up to now is      621.5 secs

     total energy              =   -1824.47405501 Ry
     Harris-Foulkes estimate   =   -1824.47405560 Ry
     estimated scf accuracy    <       0.00003367 Ry

     iteration # 16     ecut=    90.00 Ry     beta= 0.70
     Davidson diagonalization with overlap
     ethr =  8.42E-08,  avg # of iterations =  1.1

     total cpu time spent up to now is      635.1 secs

     total energy              =   -1824.47405532 Ry
     Harris-Foulkes estimate   =   -1824.47405592 Ry
     estimated scf accuracy    <       0.00002748 Ry

     iteration # 17     ecut=    90.00 Ry     beta= 0.70
     Davidson diagonalization with overlap
     ethr =  6.87E-08,  avg # of iterations =  1.0

     total cpu time spent up to now is      649.0 secs

     total energy              =   -1824.47405494 Ry
     Harris-Foulkes estimate   =   -1824.47405589 Ry
     estimated scf accuracy    <       0.00001996 Ry

     iteration # 18     ecut=    90.00 Ry     beta= 0.70
     Davidson diagonalization with overlap
     ethr =  4.99E-08,  avg # of iterations =  1.2

     total cpu time spent up to now is      663.5 secs

     total energy              =   -1824.47405499 Ry
     Harris-Foulkes estimate   =   -1824.47405551 Ry
     estimated scf accuracy    <       0.00001154 Ry

     iteration # 19     ecut=    90.00 Ry     beta= 0.70
     Davidson diagonalization with overlap
     ethr =  2.89E-08,  avg # of iterations =  2.7

     total cpu time spent up to now is      678.2 secs

     total energy              =   -1824.47405513 Ry
     Harris-Foulkes estimate   =   -1824.47405567 Ry
     estimated scf accuracy    <       0.00000539 Ry

     iteration # 20     ecut=    90.00 Ry     beta= 0.70
     Davidson diagonalization with overlap
     ethr =  1.35E-08,  avg # of iterations =  3.9

     total cpu time spent up to now is      698.3 secs

     total energy              =   -1824.47405608 Ry
     Harris-Foulkes estimate   =   -1824.47405609 Ry
     estimated scf accuracy    <       0.00000043 Ry

     iteration # 21     ecut=    90.00 Ry     beta= 0.70
     Davidson diagonalization with overlap
     ethr =  1.07E-09,  avg # of iterations =  4.0

     total cpu time spent up to now is      717.3 secs

     total energy              =   -1824.47405621 Ry
     Harris-Foulkes estimate   =   -1824.47405625 Ry
     estimated scf accuracy    <       0.00000089 Ry

     iteration # 22     ecut=    90.00 Ry     beta= 0.70
     Davidson diagonalization with overlap
     ethr =  1.07E-09,  avg # of iterations =  1.2

     total cpu time spent up to now is      734.0 secs

     total energy              =   -1824.47405624 Ry
     Harris-Foulkes estimate   =   -1824.47405623 Ry
     estimated scf accuracy    <       0.00000020 Ry

     iteration # 23     ecut=    90.00 Ry     beta= 0.70
     Davidson diagonalization with overlap
     ethr =  5.04E-10,  avg # of iterations =  2.3

     total cpu time spent up to now is      752.4 secs

     total energy              =   -1824.47405626 Ry
     Harris-Foulkes estimate   =   -1824.47405625 Ry
     estimated scf accuracy    <       0.00000006 Ry

     iteration # 24     ecut=    90.00 Ry     beta= 0.70
     Davidson diagonalization with overlap
     ethr =  1.41E-10,  avg # of iterations =  2.9

     total cpu time spent up to now is      767.0 secs

     total energy              =   -1824.47405626 Ry
     Harris-Foulkes estimate   =   -1824.47405626 Ry
     estimated scf accuracy    <       0.00000002 Ry

     iteration # 25     ecut=    90.00 Ry     beta= 0.70
     Davidson diagonalization with overlap
     ethr =  4.31E-11,  avg # of iterations =  3.1

     total cpu time spent up to now is      783.2 secs

     total energy              =   -1824.47405626 Ry
     Harris-Foulkes estimate   =   -1824.47405626 Ry
     estimated scf accuracy    <       0.00000003 Ry

     iteration # 26     ecut=    90.00 Ry     beta= 0.70
     Davidson diagonalization with overlap
     ethr =  4.31E-11,  avg # of iterations =  1.0

     total cpu time spent up to now is      797.4 secs

     total energy              =   -1824.47405626 Ry
     Harris-Foulkes estimate   =   -1824.47405626 Ry
     estimated scf accuracy    <       0.00000002 Ry

     iteration # 27     ecut=    90.00 Ry     beta= 0.70
     Davidson diagonalization with overlap
     ethr =  4.30E-11,  avg # of iterations =  2.9

     total cpu time spent up to now is      815.0 secs

     End of self-consistent calculation

          k = 0.0000 0.0000 0.0000 (  7729 PWs)   bands (ev):

    -9.5977  -9.1311  -7.5107  -7.5107  -7.4585  -7.4423  -7.3775  -7.3107
    -7.3032  -7.3032  -7.2867  -5.9854   1.4040   1.7309   4.4700   4.4700
     6.9244   7.0497   7.0497   8.4987  10.8869  13.9717  13.9717  14.1015

          k = 0.0000 0.0000 0.1576 (  7745 PWs)   bands (ev):

    -9.5893  -9.1250  -7.4954  -7.4954  -7.4543  -7.4437  -7.3695  -7.3213
    -7.3213  -7.3168  -7.2947  -5.9804   0.5478   2.8214   4.5246   4.5246
     6.9097   7.0404   7.0404   8.2782  10.6662  13.1805  13.1805  13.7178

          k = 0.0000 0.0000 0.3153 (  7692 PWs)   bands (ev):

    -9.5757  -9.1151  -7.4738  -7.4598  -7.4598  -7.4144  -7.3614  -7.3614
    -7.3502  -7.3316  -7.3142  -5.9724  -0.0088   3.8743   4.6171   4.6171
     6.8862   7.0226   7.0226   7.7138  10.5613  12.5009  12.5009  12.8759

          k = 0.0000 0.1986 0.0000 (  7729 PWs)   bands (ev):

    -9.5261  -9.1569  -7.4928  -7.4924  -7.4324  -7.4213  -7.3841  -7.3252
    -7.3160  -7.3027  -7.1940  -6.0863   1.2745   1.7468   4.6053   4.7031
     6.3246   6.7861   6.8407   8.4105  11.7658  12.3255  14.1452  14.1808

          k = 0.0000 0.1986 0.1576 (  7715 PWs)   bands (ev):

    -9.5224  -9.1537  -7.4879  -7.4782  -7.4287  -7.4212  -7.3819  -7.3382
    -7.3324  -7.2889  -7.2003  -6.0815   0.6603   2.4536   4.6037   4.7486
     6.3796   6.7788   6.8897   8.2548  11.5434  11.7480  13.4961  14.6977

          k = 0.0000 0.1986 0.3153 (  7721 PWs)   bands (ev):

    -9.5165  -9.1486  -7.4720  -7.4521  -7.4409  -7.4111  -7.3941  -7.3554
    -7.3214  -7.2955  -7.2101  -6.0740   0.1903   3.1423   4.4875   4.8254
     6.4748   6.7646   7.2002   7.8142  11.0132  11.3740  12.8873  14.6339

          k = 0.0000 0.3971 0.0000 (  7718 PWs)   bands (ev):

    -9.3769  -9.2416  -7.4494  -7.4475  -7.4116  -7.4041  -7.3671  -7.3390
    -7.3322  -7.3249  -6.8800  -6.4207   1.2278   1.5373   5.1141   5.3234
     5.8194   6.1165   6.5473   7.4744  11.7210  12.0436  14.5457  14.7311

          k = 0.0000 0.3971 0.1576 (  7722 PWs)   bands (ev):

    -9.3803  -9.2442  -7.4661  -7.4414  -7.4271  -7.4125  -7.3567  -7.3274
    -7.3221  -7.3022  -6.8770  -6.4155   1.0138   1.6967   4.9044   5.3473
     5.7265   6.1195   6.8439   7.5837  11.4890  12.0168  14.3599  14.7022

          k = 0.0000 0.3971 0.3153 (  7732 PWs)   bands (ev):

    -9.3857  -9.2485  -7.4823  -7.4618  -7.4291  -7.4137  -7.3359  -7.3217
    -7.2952  -7.2837  -6.8713  -6.4071   0.7890   1.8400   4.6520   5.3872
     5.5701   6.1236   7.3650   7.6412  11.1448  11.9407  13.9751  15.3007

          k = 0.1986 0.1986 0.0000 (  7718 PWs)   bands (ev):

    -9.4696  -9.1785  -7.4965  -7.4479  -7.4108  -7.4069  -7.3906  -7.3264
    -7.3137  -7.2937  -7.1202  -6.1569   1.0824   1.6565   4.4738   5.3066
     5.9357   6.2006   7.3487   8.2447  12.0476  12.0840  13.1232  13.4917

          k = 0.1986 0.1986 0.1576 (  7734 PWs)   bands (ev):

    -9.4687  -9.1765  -7.4822  -7.4571  -7.4118  -7.4082  -7.3744  -7.3396
    -7.3130  -7.3089  -7.1046  -6.1492   0.6820   2.0923   4.3052   5.3590
     6.1233   6.2897   7.3507   8.0570  11.7730  12.1096  12.1515  14.5806

          k = 0.1986 0.1986 0.3153 (  7709 PWs)   bands (ev):

    -9.4672  -9.1734  -7.4689  -7.4481  -7.4206  -7.3920  -7.3695  -7.3538
    -7.3498  -7.3049  -7.0800  -6.1370   0.3157   2.5747   4.0256   5.4714
     5.9727   6.9394   7.3541   7.6762  10.9807  11.9441  12.1943  15.3093

          k = 0.1986 0.3971 0.0000 (  7729 PWs)   bands (ev):

    -9.3542  -9.2480  -7.4474  -7.4177  -7.4065  -7.3998  -7.3514  -7.3223
    -7.3153  -7.3070  -6.8292  -6.4227   0.9346   1.2572   4.8650   5.5653
     6.0380   6.0873   7.1795   7.4488  11.2489  11.5275  13.6607  14.0211

          k = 0.1986 0.3971 0.1576 (  7725 PWs)   bands (ev):

    -9.3567  -9.2492  -7.4496  -7.4357  -7.3995  -7.3910  -7.3560  -7.3388
    -7.3062  -7.3013  -6.8067  -6.4073   0.8269   1.3651   4.5216   5.3433
     6.1945   6.4639   7.1741   7.4272  11.2996  11.6049  13.2460  14.2246

          k = 0.1986 0.3971 0.3153 (  7716 PWs)   bands (ev):

    -9.3608  -9.2511  -7.4639  -7.4444  -7.4020  -7.3879  -7.3462  -7.3308
    -7.3157  -7.3031  -6.7708  -6.3830   0.6986   1.4986   4.1652   5.0906
     6.2864   6.9155   7.1605   7.3804  11.3183  12.0586  12.8328  14.1571

          k = 0.3971 0.3971 0.0000 (  7700 PWs)   bands (ev):

    -9.3125  -9.2740  -7.4311  -7.4304  -7.3768  -7.3467  -7.3104  -7.3037
    -7.2953  -7.2788  -6.6728  -6.4924   0.5408   0.6981   5.0640   5.3966
     6.4063   7.1156   7.1351   7.6075  10.0884  10.2464  13.5701  13.8671

          k = 0.3971 0.3971 0.1576 (  7704 PWs)   bands (ev):

    -9.3130  -9.2736  -7.4262  -7.4203  -7.3769  -7.3473  -7.3305  -7.3156
    -7.3052  -7.3039  -6.6297  -6.4579   0.5402   0.7475   4.7484   5.2198
     6.5229   6.9391   7.1896   7.6070  10.5514  10.5526  13.5029  14.0363

          k = 0.3971 0.3971 0.3153 (  7706 PWs)   bands (ev):

    -9.3138  -9.2729  -7.4291  -7.3996  -7.3788  -7.3505  -7.3470  -7.3398
    -7.3318  -7.3236  -6.5665  -6.4060   0.5449   0.8253   4.3778   4.9786
     6.4273   6.7745   7.2470   7.6064  11.5438  11.6136  12.8291  13.9638

     the Fermi energy is     9.1505 ev

!    total energy              =   -1824.47405626 Ry
     Harris-Foulkes estimate   =   -1824.47405626 Ry
     estimated scf accuracy    <          1.0E-10 Ry

     total all-electron energy =    -83829.224771 Ry

     The total energy is the sum of the following terms:

     one-electron contribution =    -102.45750777 Ry
     hartree contribution      =      84.01649099 Ry
     xc contribution           =    -103.64466507 Ry
     ewald contribution        =    -226.43891821 Ry
     one-center paw contrib.   =   -1475.94945620 Ry
     smearing contrib. (-TS)   =       0.00000000 Ry

     convergence has been achieved in  27 iterations

     Forces acting on atoms (cartesian axes, Ry/au):

     atom    1 type  1   force =     0.00000000    0.00000000   -0.00878672
     atom    2 type  1   force =     0.00000000    0.00000000    0.00878672
     atom    3 type  2   force =     0.00000000    0.00000000   -0.00000000
     atom    4 type  2   force =     0.00000000    0.00000000    0.00000000

     Total force =     0.012426     Total SCF correction =     0.000016


     Computing stress (Cartesian axis) and pressure

          total   stress  (Ry/bohr**3)                   (kbar)     P=       20.13
   0.00017025   0.00000000   0.00000000           25.05        0.00        0.00
   0.00000000   0.00017025   0.00000000            0.00       25.05        0.00
   0.00000000   0.00000000   0.00007004            0.00        0.00       10.30


     number of scf cycles    =   2
     number of bfgs steps    =   1

     enthalpy old            =   -1824.4719929879 Ry
     enthalpy new            =   -1824.4740562606 Ry

     CASE: enthalpy_new < enthalpy_old

     new trust radius        =       0.0372240042 bohr
     new conv_thr            =       0.0000000009 Ry

     new unit-cell volume =    556.07573 a.u.^3 (    82.40192 Ang^3 )
     density =      8.99568 g/cm^3

CELL_PARAMETERS (alat=  7.51052754)
   1.015325827   0.000000000   0.000000000
   0.000000000   1.015325827   0.000000000
   0.000000000   0.000000000   1.273244306

ATOMIC_POSITIONS (crystal)
Pb            0.0000000000        0.5000000000        0.2401194039
Pb            0.5000000000        0.0000000000        0.7598805961
O             0.0000000000        0.0000000000       -0.0000000000
O             0.5000000000        0.5000000000        0.0000000000



     Writing output data file ./output.save/
     NEW-OLD atomic charge density approx. for the potential
     extrapolated charge   40.76853, renormalised to   40.00000

     total cpu time spent up to now is      948.8 secs

     Self-consistent Calculation

     iteration #  1     ecut=    90.00 Ry     beta= 0.70
     Davidson diagonalization with overlap
     ethr =  1.00E-06,  avg # of iterations =  9.0

     negative rho (up, down):  5.914E-05 0.000E+00

     total cpu time spent up to now is      994.0 secs

     total energy              =   -1824.31483448 Ry
     Harris-Foulkes estimate   =   -1822.58487734 Ry
     estimated scf accuracy    <       0.15841007 Ry

     iteration #  2     ecut=    90.00 Ry     beta= 0.70
     Davidson diagonalization with overlap
     ethr =  3.96E-04,  avg # of iterations =  4.0

     total cpu time spent up to now is     1023.0 secs

     total energy              =   -1824.39861676 Ry
     Harris-Foulkes estimate   =   -1824.67092893 Ry
     estimated scf accuracy    <       0.87758067 Ry

     iteration #  3     ecut=    90.00 Ry     beta= 0.70
     Davidson diagonalization with overlap
     ethr =  3.96E-04,  avg # of iterations =  3.0

     total cpu time spent up to now is     1040.4 secs

     total energy              =   -1824.48085899 Ry
     Harris-Foulkes estimate   =   -1824.48849879 Ry
     estimated scf accuracy    <       0.08050240 Ry

     iteration #  4     ecut=    90.00 Ry     beta= 0.70
     Davidson diagonalization with overlap
     ethr =  2.01E-04,  avg # of iterations =  1.0

     total cpu time spent up to now is     1056.1 secs

     total energy              =   -1824.48066513 Ry
     Harris-Foulkes estimate   =   -1824.48250732 Ry
     estimated scf accuracy    <       0.05385127 Ry

     iteration #  5     ecut=    90.00 Ry     beta= 0.70
     Davidson diagonalization with overlap
     ethr =  1.35E-04,  avg # of iterations =  1.0

     total cpu time spent up to now is     1069.9 secs

     total energy              =   -1824.47886185 Ry
     Harris-Foulkes estimate   =   -1824.48139298 Ry
     estimated scf accuracy    <       0.04502840 Ry

     iteration #  6     ecut=    90.00 Ry     beta= 0.70
     Davidson diagonalization with overlap
     ethr =  1.13E-04,  avg # of iterations =  1.0

     total cpu time spent up to now is     1083.7 secs

     total energy              =   -1824.47514612 Ry
     Harris-Foulkes estimate   =   -1824.47941032 Ry
     estimated scf accuracy    <       0.03239547 Ry

     iteration #  7     ecut=    90.00 Ry     beta= 0.70
     Davidson diagonalization with overlap
     ethr =  8.10E-05,  avg # of iterations =  1.0

     total cpu time spent up to now is     1097.5 secs

     total energy              =   -1824.47338913 Ry
     Harris-Foulkes estimate   =   -1824.47611984 Ry
     estimated scf accuracy    <       0.01300503 Ry

     iteration #  8     ecut=    90.00 Ry     beta= 0.70
     Davidson diagonalization with overlap
     ethr =  3.25E-05,  avg # of iterations =  2.1

     total cpu time spent up to now is     1111.7 secs

     total energy              =   -1824.47401351 Ry
     Harris-Foulkes estimate   =   -1824.47446078 Ry
     estimated scf accuracy    <       0.00223057 Ry

     iteration #  9     ecut=    90.00 Ry     beta= 0.70
     Davidson diagonalization with overlap
     ethr =  5.58E-06,  avg # of iterations =  4.1

     total cpu time spent up to now is     1134.8 secs

     total energy              =   -1824.47551056 Ry
     Harris-Foulkes estimate   =   -1824.47558299 Ry
     estimated scf accuracy    <       0.00066864 Ry

     iteration # 10     ecut=    90.00 Ry     beta= 0.70
     Davidson diagonalization with overlap
     ethr =  1.67E-06,  avg # of iterations =  1.9

     total cpu time spent up to now is     1149.7 secs

     total energy              =   -1824.47558587 Ry
     Harris-Foulkes estimate   =   -1824.47556334 Ry
     estimated scf accuracy    <       0.00056291 Ry

     iteration # 11     ecut=    90.00 Ry     beta= 0.70
     Davidson diagonalization with overlap
     ethr =  1.41E-06,  avg # of iterations =  2.2

     total cpu time spent up to now is     1165.4 secs

     total energy              =   -1824.47550649 Ry
     Harris-Foulkes estimate   =   -1824.47574158 Ry
     estimated scf accuracy    <       0.00132639 Ry

     iteration # 12     ecut=    90.00 Ry     beta= 0.70
     Davidson diagonalization with overlap
     ethr =  1.41E-06,  avg # of iterations =  1.1

     total cpu time spent up to now is     1179.0 secs

     total energy              =   -1824.47541838 Ry
     Harris-Foulkes estimate   =   -1824.47552992 Ry
     estimated scf accuracy    <       0.00047666 Ry

     iteration # 13     ecut=    90.00 Ry     beta= 0.70
     Davidson diagonalization with overlap
     ethr =  1.19E-06,  avg # of iterations =  2.1

     total cpu time spent up to now is     1193.4 secs

     total energy              =   -1824.47545476 Ry
     Harris-Foulkes estimate   =   -1824.47545087 Ry
     estimated scf accuracy    <       0.00005361 Ry

     iteration # 14     ecut=    90.00 Ry     beta= 0.70
     Davidson diagonalization with overlap
     ethr =  1.34E-07,  avg # of iterations =  3.4

     total cpu time spent up to now is     1213.3 secs

     total energy              =   -1824.47547170 Ry
     Harris-Foulkes estimate   =   -1824.47547377 Ry
     estimated scf accuracy    <       0.00001801 Ry

     iteration # 15     ecut=    90.00 Ry     beta= 0.70
     Davidson diagonalization with overlap
     ethr =  4.50E-08,  avg # of iterations =  3.0

     total cpu time spent up to now is     1231.9 secs

     total energy              =   -1824.47546981 Ry
     Harris-Foulkes estimate   =   -1824.47547778 Ry
     estimated scf accuracy    <       0.00002622 Ry

     iteration # 16     ecut=    90.00 Ry     beta= 0.70
     Davidson diagonalization with overlap
     ethr =  4.50E-08,  avg # of iterations =  2.0

     total cpu time spent up to now is     1246.7 secs

     total energy              =   -1824.47547232 Ry
     Harris-Foulkes estimate   =   -1824.47547164 Ry
     estimated scf accuracy    <       0.00000310 Ry

     iteration # 17     ecut=    90.00 Ry     beta= 0.70
     Davidson diagonalization with overlap
     ethr =  7.75E-09,  avg # of iterations =  2.0

     total cpu time spent up to now is     1262.2 secs

     total energy              =   -1824.47547160 Ry
     Harris-Foulkes estimate   =   -1824.47547255 Ry
     estimated scf accuracy    <       0.00000491 Ry

     iteration # 18     ecut=    90.00 Ry     beta= 0.70
     Davidson diagonalization with overlap
     ethr =  7.75E-09,  avg # of iterations =  4.0

     total cpu time spent up to now is     1288.5 secs

     total energy              =   -1824.47547574 Ry
     Harris-Foulkes estimate   =   -1824.47547722 Ry
     estimated scf accuracy    <       0.00005109 Ry

     iteration # 19     ecut=    90.00 Ry     beta= 0.70
     Davidson diagonalization with overlap
     ethr =  7.75E-09,  avg # of iterations =  1.0

     total cpu time spent up to now is     1303.0 secs

     total energy              =   -1824.47547771 Ry
     Harris-Foulkes estimate   =   -1824.47547576 Ry
     estimated scf accuracy    <       0.00004478 Ry

     iteration # 20     ecut=    90.00 Ry     beta= 0.70
     Davidson diagonalization with overlap
     ethr =  7.75E-09,  avg # of iterations =  1.1

     total cpu time spent up to now is     1317.6 secs

     total energy              =   -1824.47547209 Ry
     Harris-Foulkes estimate   =   -1824.47547778 Ry
     estimated scf accuracy    <       0.00006359 Ry

     iteration # 21     ecut=    90.00 Ry     beta= 0.70
     Davidson diagonalization with overlap
     ethr =  7.75E-09,  avg # of iterations =  3.0

     total cpu time spent up to now is     1335.2 secs

     total energy              =   -1824.47546984 Ry
     Harris-Foulkes estimate   =   -1824.47547266 Ry
     estimated scf accuracy    <       0.00002157 Ry

     iteration # 22     ecut=    90.00 Ry     beta= 0.70
     Davidson diagonalization with overlap
     ethr =  7.75E-09,  avg # of iterations =  3.5

     total cpu time spent up to now is     1355.8 secs

     total energy              =   -1824.47547098 Ry
     Harris-Foulkes estimate   =   -1824.47547103 Ry
     estimated scf accuracy    <       0.00000028 Ry

     iteration # 23     ecut=    90.00 Ry     beta= 0.70
     Davidson diagonalization with overlap
     ethr =  6.94E-10,  avg # of iterations =  3.1

     total cpu time spent up to now is     1372.8 secs

     total energy              =   -1824.47547101 Ry
     Harris-Foulkes estimate   =   -1824.47547101 Ry
     estimated scf accuracy    <       0.00000002 Ry

     iteration # 24     ecut=    90.00 Ry     beta= 0.70
     Davidson diagonalization with overlap
     ethr =  4.29E-11,  avg # of iterations =  3.1

     total cpu time spent up to now is     1392.2 secs

     total energy              =   -1824.47547101 Ry
     Harris-Foulkes estimate   =   -1824.47547101 Ry
     estimated scf accuracy    <          5.2E-09 Ry

     iteration # 25     ecut=    90.00 Ry     beta= 0.70
     Davidson diagonalization with overlap
     ethr =  1.31E-11,  avg # of iterations =  3.9

     total cpu time spent up to now is     1415.1 secs

     total energy              =   -1824.47547101 Ry
     Harris-Foulkes estimate   =   -1824.47547101 Ry
     estimated scf accuracy    <          2.5E-09 Ry

     iteration # 26     ecut=    90.00 Ry     beta= 0.70
     Davidson diagonalization with overlap
     ethr =  6.33E-12,  avg # of iterations =  2.9

     total cpu time spent up to now is     1431.3 secs

     End of self-consistent calculation

          k = 0.0000 0.0000 0.0000 (  7729 PWs)   bands (ev):

    -9.7357  -9.3241  -7.7654  -7.7654  -7.7178  -7.6942  -7.6392  -7.5762
    -7.5707  -7.5707  -7.5521  -6.2655   1.2005   1.5136   4.2796   4.2796
     6.7059   6.8044   6.8044   8.1885  10.5352  13.6623  13.6623  13.7423

          k = 0.0000 0.0000 0.1571 (  7745 PWs)   bands (ev):

    -9.7280  -9.3184  -7.7511  -7.7511  -7.7052  -7.7041  -7.6317  -7.5876
    -7.5876  -7.5814  -7.5597  -6.2611   0.3747   2.5549   4.3323   4.3323
     6.6906   6.7954   6.7954   7.9964  10.3199  12.8877  12.8877  13.3493

          k = 0.0000 0.0000 0.3142 (  7692 PWs)   bands (ev):

    -9.7155  -9.3090  -7.7229  -7.7182  -7.7182  -7.6774  -7.6246  -7.6246
    -7.6139  -7.5941  -7.5777  -6.2542  -0.1632   3.5390   4.4216   4.4216
     6.6661   6.7783   6.7783   7.5017  10.2084  12.2220  12.2220  12.5216

          k = 0.0000 0.1970 0.0000 (  7729 PWs)   bands (ev):

    -9.6703  -9.3457  -7.7485  -7.7471  -7.6939  -7.6748  -7.6459  -7.5926
    -7.5820  -7.5669  -7.4595  -6.3669   1.0663   1.5135   4.4204   4.5077
     6.1187   6.5467   6.6206   8.1189  11.4101  12.0391  13.8022  13.8641

          k = 0.0000 0.1970 0.1571 (  7715 PWs)   bands (ev):

    -9.6671  -9.3427  -7.7442  -7.7335  -7.6837  -7.6814  -7.6446  -7.6010
    -7.5995  -7.5550  -7.4649  -6.3626   0.4756   2.1905   4.4102   4.5517
     6.1767   6.5397   6.6693   7.9774  11.1946  11.4604  13.1940  14.3491

          k = 0.0000 0.1970 0.3142 (  7721 PWs)   bands (ev):

    -9.6619  -9.3378  -7.7293  -7.7085  -7.6938  -7.6717  -7.6583  -7.6208
    -7.5854  -7.5611  -7.4732  -6.3558   0.0241   2.8414   4.2948   4.6261
     6.2640   6.5263   6.9700   7.5758  10.7385  11.0205  12.5978  14.2728

          k = 0.0000 0.3940 0.0000 (  7718 PWs)   bands (ev):

    -9.5365  -9.4181  -7.7069  -7.7045  -7.6676  -7.6660  -7.6326  -7.6014
    -7.5942  -7.5922  -7.1478  -6.6968   1.0031   1.2922   4.9330   5.1148
     5.6386   5.8914   6.3435   7.2448  11.4187  11.7246  14.1522  14.3934

          k = 0.0000 0.3940 0.1571 (  7722 PWs)   bands (ev):

    -9.5399  -9.4206  -7.7238  -7.6975  -7.6872  -7.6689  -7.6224  -7.5904
    -7.5895  -7.5672  -7.1447  -6.6919   0.8004   1.4492   4.7222   5.1383
     5.5399   5.8946   6.6344   7.3482  11.1915  11.6975  14.0312  14.3217

          k = 0.0000 0.3940 0.3142 (  7732 PWs)   bands (ev):

    -9.5452  -9.4246  -7.7387  -7.7193  -7.6868  -7.6704  -7.6028  -7.5889
    -7.5607  -7.5501  -7.1389  -6.6840   0.5898   1.5917   4.4694   5.1774
     5.3777   5.8993   7.1324   7.4036  10.8606  11.6176  13.6555  14.9220

          k = 0.1970 0.1970 0.0000 (  7718 PWs)   bands (ev):

    -9.6190  -9.3637  -7.7509  -7.7058  -7.6739  -7.6624  -7.6507  -7.5945
    -7.5771  -7.5614  -7.3840  -6.4384   0.8742   1.4131   4.2960   5.1005
     5.7435   5.9971   7.1050   7.9641  11.7547  11.7845  12.8117  13.1225

          k = 0.1970 0.1970 0.1571 (  7734 PWs)   bands (ev):

    -9.6184  -9.3619  -7.7373  -7.7142  -7.6708  -7.6672  -7.6363  -7.6061
    -7.5791  -7.5732  -7.3695  -6.4315   0.4888   1.8345   4.1245   5.1515
     5.9208   6.0883   7.1072   7.7905  11.4674  11.8078  11.8468  14.2184

          k = 0.1970 0.1970 0.3142 (  7709 PWs)   bands (ev):

    -9.6173  -9.3588  -7.7251  -7.7041  -7.6775  -7.6548  -7.6338  -7.6162
    -7.6144  -7.5694  -7.3466  -6.4204   0.1386   2.2936   3.8513   5.2598
     5.7737   6.7033   7.1108   7.4441  10.6968  11.5901  11.9319  14.9422

          k = 0.1970 0.3940 0.0000 (  7729 PWs)   bands (ev):

    -9.5160  -9.4233  -7.7041  -7.6770  -7.6654  -7.6584  -7.6169  -7.5862
    -7.5832  -7.5727  -7.0975  -6.7006   0.7179   1.0184   4.6869   5.3751
     5.8523   5.8710   6.9405   7.2104  10.9758  11.2341  13.3448  13.6446

          k = 0.1970 0.3940 0.1571 (  7725 PWs)   bands (ev):

    -9.5185  -9.4244  -7.7068  -7.6930  -7.6592  -7.6502  -7.6217  -7.6022
    -7.5734  -7.5674  -7.0768  -6.6865   0.6150   1.1258   4.3526   5.1601
     5.9734   6.2561   6.9353   7.1895  11.0185  11.3197  12.9189  13.8705

          k = 0.1970 0.3940 0.3142 (  7716 PWs)   bands (ev):

    -9.5225  -9.4262  -7.7202  -7.7017  -7.6620  -7.6471  -7.6114  -7.5964
    -7.5813  -7.5684  -7.0436  -6.6642   0.4952   1.2576   4.0025   4.9134
     6.0598   6.6797   6.9207   7.1492  11.0316  11.7587  12.5344  13.8293

          k = 0.3940 0.3940 0.0000 (  7700 PWs)   bands (ev):

    -9.4792  -9.4457  -7.6882  -7.6873  -7.6372  -7.6082  -7.5792  -7.5729
    -7.5617  -7.5469  -6.9459  -6.7713   0.3339   0.4802   4.8902   5.2199
     6.1938   6.8745   6.8965   7.3591   9.8487   9.9879  13.2780  13.5566

          k = 0.3940 0.3940 0.1571 (  7704 PWs)   bands (ev):

    -9.4797  -9.4453  -7.6836  -7.6778  -7.6373  -7.6089  -7.5964  -7.5835
    -7.5714  -7.5709  -6.9065  -6.7398   0.3338   0.5299   4.5828   5.0481
     6.2983   6.7050   6.9488   7.3587  10.2930  10.3054  13.1869  13.7079

          k = 0.3940 0.3940 0.3142 (  7706 PWs)   bands (ev):

    -9.4805  -9.4446  -7.6862  -7.6580  -7.6393  -7.6126  -7.6104  -7.6018
    -7.5995  -7.5905  -6.8485  -6.6922   0.3400   0.6075   4.2206   4.8135
     6.1955   6.5461   7.0040   7.3582  11.2699  11.3588  12.5192  13.6276

     the Fermi energy is     8.8407 ev

!    total energy              =   -1824.47547101 Ry
     Harris-Foulkes estimate   =   -1824.47547101 Ry
     estimated scf accuracy    <          3.7E-11 Ry

     total all-electron energy =    -83829.226186 Ry

     The total energy is the sum of the following terms:

     one-electron contribution =    -105.16893119 Ry
     hartree contribution      =      85.00113095 Ry
     xc contribution           =    -103.61001178 Ry
     ewald contribution        =    -224.74995043 Ry
     one-center paw contrib.   =   -1475.94770856 Ry
     smearing contrib. (-TS)   =       0.00000000 Ry

     convergence has been achieved in  26 iterations

     Forces acting on atoms (cartesian axes, Ry/au):

     atom    1 type  1   force =     0.00000000    0.00000000   -0.01306059
     atom    2 type  1   force =     0.00000000    0.00000000    0.01306059
     atom    3 type  2   force =     0.00000000    0.00000000    0.00000000
     atom    4 type  2   force =     0.00000000    0.00000000    0.00000000

     Total force =     0.018470     Total SCF correction =     0.000005


     Computing stress (Cartesian axis) and pressure

          total   stress  (Ry/bohr**3)                   (kbar)     P=        7.56
   0.00007030   0.00000000   0.00000000           10.34        0.00        0.00
   0.00000000   0.00007030   0.00000000            0.00       10.34        0.00
   0.00000000   0.00000000   0.00001359            0.00        0.00        2.00


     number of scf cycles    =   3
     number of bfgs steps    =   2

     enthalpy old            =   -1824.4740562606 Ry
     enthalpy new            =   -1824.4754710121 Ry

     CASE: enthalpy_new < enthalpy_old

     new trust radius        =       0.0502542839 bohr
     new conv_thr            =       0.0000000013 Ry

     new unit-cell volume =    570.36724 a.u.^3 (    84.51970 Ang^3 )
     density =      8.77028 g/cm^3

CELL_PARAMETERS (alat=  7.51052754)
   1.026144688   0.000000000   0.000000000
   0.000000000   1.026144688   0.000000000
   0.000000000   0.000000000   1.278574502

ATOMIC_POSITIONS (crystal)
Pb            0.0000000000        0.5000000000        0.2365020476
Pb            0.5000000000        0.0000000000        0.7634979524
O             0.0000000000        0.0000000000       -0.0000000000
O             0.5000000000        0.5000000000        0.0000000000



     Writing output data file ./output.save/
     NEW-OLD atomic charge density approx. for the potential
     extrapolated charge   41.00215, renormalised to   40.00000

     total cpu time spent up to now is     1569.7 secs

     Self-consistent Calculation

     iteration #  1     ecut=    90.00 Ry     beta= 0.70
     Davidson diagonalization with overlap
     ethr =  1.00E-06,  avg # of iterations = 10.7

     negative rho (up, down):  1.150E-03 0.000E+00

     total cpu time spent up to now is     1622.1 secs

     total energy              =   -1824.19308179 Ry
     Harris-Foulkes estimate   =   -1821.95349006 Ry
     estimated scf accuracy    <       0.27678922 Ry

     iteration #  2     ecut=    90.00 Ry     beta= 0.70
     Davidson diagonalization with overlap
     ethr =  6.92E-04,  avg # of iterations =  4.0

     total cpu time spent up to now is     1651.7 secs

     total energy              =   -1824.35090836 Ry
     Harris-Foulkes estimate   =   -1824.82235979 Ry
     estimated scf accuracy    <       1.51133387 Ry

     iteration #  3     ecut=    90.00 Ry     beta= 0.70
     Davidson diagonalization with overlap
     ethr =  6.92E-04,  avg # of iterations =  3.0

     total cpu time spent up to now is     1671.0 secs

     total energy              =   -1824.48693537 Ry
     Harris-Foulkes estimate   =   -1824.50047458 Ry
     estimated scf accuracy    <       0.14590278 Ry

     iteration #  4     ecut=    90.00 Ry     beta= 0.70
     Davidson diagonalization with overlap
     ethr =  3.65E-04,  avg # of iterations =  1.0

     total cpu time spent up to now is     1686.7 secs

     total energy              =   -1824.48502378 Ry
     Harris-Foulkes estimate   =   -1824.48961406 Ry
     estimated scf accuracy    <       0.09672606 Ry

     iteration #  5     ecut=    90.00 Ry     beta= 0.70
     Davidson diagonalization with overlap
     ethr =  2.42E-04,  avg # of iterations =  1.0

     total cpu time spent up to now is     1702.7 secs

     total energy              =   -1824.48160968 Ry
     Harris-Foulkes estimate   =   -1824.48639220 Ry
     estimated scf accuracy    <       0.07527342 Ry

     iteration #  6     ecut=    90.00 Ry     beta= 0.70
     Davidson diagonalization with overlap
     ethr =  1.88E-04,  avg # of iterations =  1.0

     total cpu time spent up to now is     1718.0 secs

     total energy              =   -1824.47342035 Ry
     Harris-Foulkes estimate   =   -1824.48263032 Ry
     estimated scf accuracy    <       0.05155923 Ry

     iteration #  7     ecut=    90.00 Ry     beta= 0.70
     Davidson diagonalization with overlap
     ethr =  1.29E-04,  avg # of iterations =  1.1

     total cpu time spent up to now is     1734.1 secs

     total energy              =   -1824.47219650 Ry
     Harris-Foulkes estimate   =   -1824.47585420 Ry
     estimated scf accuracy    <       0.01286764 Ry

     iteration #  8     ecut=    90.00 Ry     beta= 0.70
     Davidson diagonalization with overlap
     ethr =  3.22E-05,  avg # of iterations =  3.5

     total cpu time spent up to now is     1754.3 secs

     total energy              =   -1824.47641640 Ry
     Harris-Foulkes estimate   =   -1824.47669526 Ry
     estimated scf accuracy    <       0.00133574 Ry

     iteration #  9     ecut=    90.00 Ry     beta= 0.70
     Davidson diagonalization with overlap
     ethr =  3.34E-06,  avg # of iterations =  3.6

     total cpu time spent up to now is     1774.1 secs

     total energy              =   -1824.47681031 Ry
     Harris-Foulkes estimate   =   -1824.47679341 Ry
     estimated scf accuracy    <       0.00103592 Ry

     iteration # 10     ecut=    90.00 Ry     beta= 0.70
     Davidson diagonalization with overlap
     ethr =  2.59E-06,  avg # of iterations =  1.0

     total cpu time spent up to now is     1789.5 secs

     total energy              =   -1824.47664045 Ry
     Harris-Foulkes estimate   =   -1824.47682053 Ry
     estimated scf accuracy    <       0.00112140 Ry

     iteration # 11     ecut=    90.00 Ry     beta= 0.70
     Davidson diagonalization with overlap
     ethr =  2.59E-06,  avg # of iterations =  2.2

     total cpu time spent up to now is     1804.6 secs

     total energy              =   -1824.47643757 Ry
     Harris-Foulkes estimate   =   -1824.47689920 Ry
     estimated scf accuracy    <       0.00157096 Ry

     iteration # 12     ecut=    90.00 Ry     beta= 0.70
     Davidson diagonalization with overlap
     ethr =  2.59E-06,  avg # of iterations =  3.0

     total cpu time spent up to now is     1823.4 secs

     total energy              =   -1824.47723509 Ry
     Harris-Foulkes estimate   =   -1824.47684139 Ry
     estimated scf accuracy    <       0.00130655 Ry

     iteration # 13     ecut=    90.00 Ry     beta= 0.70
     Davidson diagonalization with overlap
     ethr =  2.59E-06,  avg # of iterations =  1.4

     total cpu time spent up to now is     1837.1 secs

     total energy              =   -1824.47673390 Ry
     Harris-Foulkes estimate   =   -1824.47728107 Ry
     estimated scf accuracy    <       0.00342058 Ry

     iteration # 14     ecut=    90.00 Ry     beta= 0.70
     Davidson diagonalization with overlap
     ethr =  2.59E-06,  avg # of iterations =  2.0

     total cpu time spent up to now is     1851.5 secs

     total energy              =   -1824.47658522 Ry
     Harris-Foulkes estimate   =   -1824.47678082 Ry
     estimated scf accuracy    <       0.00113734 Ry

     iteration # 15     ecut=    90.00 Ry     beta= 0.70
     Davidson diagonalization with overlap
     ethr =  2.59E-06,  avg # of iterations =  1.0

     total cpu time spent up to now is     1866.2 secs

     total energy              =   -1824.47659064 Ry
     Harris-Foulkes estimate   =   -1824.47660992 Ry
     estimated scf accuracy    <       0.00030687 Ry

     iteration # 16     ecut=    90.00 Ry     beta= 0.70
     Davidson diagonalization with overlap
     ethr =  7.67E-07,  avg # of iterations =  2.9

     total cpu time spent up to now is     1884.3 secs

     total energy              =   -1824.47658077 Ry
     Harris-Foulkes estimate   =   -1824.47661324 Ry
     estimated scf accuracy    <       0.00012664 Ry

     iteration # 17     ecut=    90.00 Ry     beta= 0.70
     Davidson diagonalization with overlap
     ethr =  3.17E-07,  avg # of iterations =  4.0

     total cpu time spent up to now is     1903.8 secs

     total energy              =   -1824.47661942 Ry
     Harris-Foulkes estimate   =   -1824.47662502 Ry
     estimated scf accuracy    <       0.00002988 Ry

     iteration # 18     ecut=    90.00 Ry     beta= 0.70
     Davidson diagonalization with overlap
     ethr =  7.47E-08,  avg # of iterations =  1.7

     total cpu time spent up to now is     1917.6 secs

     total energy              =   -1824.47661837 Ry
     Harris-Foulkes estimate   =   -1824.47662066 Ry
     estimated scf accuracy    <       0.00000800 Ry

     iteration # 19     ecut=    90.00 Ry     beta= 0.70
     Davidson diagonalization with overlap
     ethr =  2.00E-08,  avg # of iterations =  3.0

     total cpu time spent up to now is     1935.8 secs

     total energy              =   -1824.47662015 Ry
     Harris-Foulkes estimate   =   -1824.47662020 Ry
     estimated scf accuracy    <       0.00000041 Ry

     iteration # 20     ecut=    90.00 Ry     beta= 0.70
     Davidson diagonalization with overlap
     ethr =  1.02E-09,  avg # of iterations =  3.9

     total cpu time spent up to now is     1953.2 secs

     total energy              =   -1824.47662029 Ry
     Harris-Foulkes estimate   =   -1824.47662028 Ry
     estimated scf accuracy    <       0.00000006 Ry

     iteration # 21     ecut=    90.00 Ry     beta= 0.70
     Davidson diagonalization with overlap
     ethr =  1.61E-10,  avg # of iterations =  2.1

     total cpu time spent up to now is     1967.8 secs

     total energy              =   -1824.47662028 Ry
     Harris-Foulkes estimate   =   -1824.47662029 Ry
     estimated scf accuracy    <       0.00000010 Ry

     iteration # 22     ecut=    90.00 Ry     beta= 0.70
     Davidson diagonalization with overlap
     ethr =  1.61E-10,  avg # of iterations =  1.0

     total cpu time spent up to now is     1984.9 secs

     total energy              =   -1824.47662027 Ry
     Harris-Foulkes estimate   =   -1824.47662028 Ry
     estimated scf accuracy    <       0.00000005 Ry

     iteration # 23     ecut=    90.00 Ry     beta= 0.70
     Davidson diagonalization with overlap
     ethr =  1.22E-10,  avg # of iterations =  2.1

     total cpu time spent up to now is     2000.9 secs

     total energy              =   -1824.47662028 Ry
     Harris-Foulkes estimate   =   -1824.47662028 Ry
     estimated scf accuracy    <          7.4E-09 Ry

     iteration # 24     ecut=    90.00 Ry     beta= 0.70
     Davidson diagonalization with overlap
     ethr =  1.84E-11,  avg # of iterations =  4.0

     total cpu time spent up to now is     2023.3 secs

     total energy              =   -1824.47662029 Ry
     Harris-Foulkes estimate   =   -1824.47662028 Ry
     estimated scf accuracy    <          6.9E-09 Ry

     iteration # 25     ecut=    90.00 Ry     beta= 0.70
     Davidson diagonalization with overlap
     ethr =  1.73E-11,  avg # of iterations =  3.1

     total cpu time spent up to now is     2043.0 secs

     total energy              =   -1824.47662028 Ry
     Harris-Foulkes estimate   =   -1824.47662029 Ry
     estimated scf accuracy    <       0.00000005 Ry

     iteration # 26     ecut=    90.00 Ry     beta= 0.70
     Davidson diagonalization with overlap
     ethr =  1.73E-11,  avg # of iterations =  2.1

     total cpu time spent up to now is     2057.0 secs

     total energy              =   -1824.47662028 Ry
     Harris-Foulkes estimate   =   -1824.47662028 Ry
     estimated scf accuracy    <       0.00000002 Ry

     iteration # 27     ecut=    90.00 Ry     beta= 0.70
     Davidson diagonalization with overlap
     ethr =  1.73E-11,  avg # of iterations =  2.1

     total cpu time spent up to now is     2071.6 secs

     total energy              =   -1824.47662027 Ry
     Harris-Foulkes estimate   =   -1824.47662028 Ry
     estimated scf accuracy    <          6.7E-09 Ry

     iteration # 28     ecut=    90.00 Ry     beta= 0.70
     Davidson diagonalization with overlap
     ethr =  1.67E-11,  avg # of iterations =  3.0

     total cpu time spent up to now is     2086.0 secs

     End of self-consistent calculation

          k = 0.0000 0.0000 0.0000 (  7729 PWs)   bands (ev):

    -9.9477  -9.6003  -8.0858  -8.0858  -8.0433  -8.0075  -7.9640  -7.9050
    -7.9049  -7.9049  -7.8798  -6.6027   0.9396   1.2769   4.0030   4.0030
     6.4199   6.4578   6.4578   7.7975  10.0798  13.2420  13.3174  13.3174

          k = 0.0000 0.0000 0.1564 (  7745 PWs)   bands (ev):

    -9.9410  -9.5953  -8.0730  -8.0730  -8.0311  -8.0168  -7.9572  -7.9199
    -7.9199  -7.9090  -7.8867  -6.5992   0.1750   2.2311   4.0524   4.0524
     6.4038   6.4495   6.4495   7.6478   9.8628  12.5569  12.5569  12.8607

          k = 0.0000 0.0000 0.3128 (  7692 PWs)   bands (ev):

    -9.9302  -9.5870  -8.0443  -8.0443  -8.0319  -8.0083  -7.9523  -7.9523
    -7.9418  -7.9181  -7.9022  -6.5935  -0.3354   3.1226   4.1359   4.1359
     6.3782   6.4337   6.4337   7.2508   9.7281  11.9094  11.9094  12.0688

          k = 0.0000 0.1949 0.0000 (  7729 PWs)   bands (ev):

    -9.8889  -9.6162  -8.0707  -8.0661  -8.0218  -7.9897  -7.9722  -7.9259
    -7.9128  -7.8929  -7.7896  -6.7069   0.7944   1.2463   4.1566   4.2248
     5.8421   6.2079   6.3257   7.7604  10.9539  11.7025  13.3664  13.5082

          k = 0.0000 0.1949 0.1564 (  7715 PWs)   bands (ev):

    -9.8862  -9.6135  -8.0667  -8.0540  -8.0124  -7.9957  -7.9733  -7.9323
    -7.9259  -7.8843  -7.7934  -6.7034   0.2535   1.8629   4.1341   4.2663
     5.9091   6.2016   6.3729   7.6379  10.7379  11.1171  12.8508  13.9121

          k = 0.0000 0.1949 0.3128 (  7721 PWs)   bands (ev):

    -9.8819  -9.6091  -8.0533  -8.0321  -8.0066  -7.9973  -7.9900  -7.9516
    -7.9124  -7.8897  -7.7990  -6.6977  -0.1691   2.4574   4.0175   4.3362
     5.9894   6.1897   6.6607   7.2889  10.4039  10.5555  12.2710  13.8246

          k = 0.0000 0.3898 0.0000 (  7718 PWs)   bands (ev):

    -9.7720  -9.6732  -8.0338  -8.0228  -7.9955  -7.9861  -7.9644  -7.9253
    -7.9251  -7.9170  -7.4807  -7.0365   0.7080   0.9856   4.6848   4.8156
     5.4033   5.5712   6.0834   6.9728  11.0548  11.3363  13.6304  14.0049

          k = 0.0000 0.3898 0.1564 (  7722 PWs)   bands (ev):

    -9.7750  -9.6754  -8.0477  -8.0174  -8.0137  -7.9884  -7.9544  -7.9225
    -7.9151  -7.8951  -7.4774  -7.0321   0.5282   1.1321   4.4716   4.8381
     5.2951   5.5748   6.3701   7.0646  10.8305  11.3058  13.6519  13.8228

          k = 0.0000 0.3898 0.3128 (  7732 PWs)   bands (ev):

    -9.7799  -9.6788  -8.0605  -8.0419  -8.0091  -7.9903  -7.9365  -7.9214
    -7.8894  -7.8801  -7.4714  -7.0249   0.3405   1.2708   4.2167   4.8756
     5.1238   5.5801   6.8393   7.1143  10.5149  11.2145  13.2877  14.4348

          k = 0.1949 0.1949 0.0000 (  7718 PWs)   bands (ev):

    -9.8427  -9.6291  -8.0697  -8.0295  -8.0039  -7.9805  -7.9737  -7.9293
    -7.9021  -7.8952  -7.7120  -6.7816   0.5965   1.1212   4.0439   4.8076
     5.4890   5.7229   6.7683   7.6247  11.3477  11.4960  12.4334  12.6455

          k = 0.1949 0.1949 0.1564 (  7734 PWs)   bands (ev):

    -9.8423  -9.6275  -8.0572  -8.0368  -7.9998  -7.9851  -7.9623  -7.9389
    -7.9107  -7.8993  -7.6989  -6.7758   0.2464   1.5061   3.8677   4.8562
     5.6490   5.8237   6.7706   7.4698  11.0896  11.3688  11.5577  13.7611

          k = 0.1949 0.1949 0.3128 (  7709 PWs)   bands (ev):

    -9.8416  -9.6247  -8.0464  -8.0258  -7.9975  -7.9844  -7.9643  -7.9432
    -7.9420  -7.8959  -7.6780  -6.7664  -0.0764   1.9266   3.6017   4.9570
     5.5094   6.3963   6.7744   7.1666  10.3484  11.1280  11.6420  14.4866

          k = 0.1949 0.3898 0.0000 (  7729 PWs)   bands (ev):

    -9.7527  -9.6755  -8.0254  -8.0016  -7.9885  -7.9812  -7.9494  -7.9169
    -7.9117  -7.9024  -7.4318  -7.0439   0.4253   0.7086   4.4396   5.1152
     5.5729   5.6266   6.6126   6.9248  10.6641  10.8900  12.9666  13.1654

          k = 0.1949 0.3898 0.1564 (  7725 PWs)   bands (ev):

    -9.7549  -9.6765  -8.0288  -8.0144  -7.9840  -7.9736  -7.9535  -7.9293
    -7.9047  -7.8972  -7.4135  -7.0317   0.3345   0.8102   4.1215   4.9144
     5.6646   5.9935   6.6105   6.9039  10.6867  10.9898  12.5146  13.4298

          k = 0.1949 0.3898 0.3128 (  7716 PWs)   bands (ev):

    -9.7586  -9.6781  -8.0408  -8.0229  -7.9876  -7.9703  -7.9424  -7.9269
    -7.9106  -7.8966  -7.3842  -7.0123   0.2300   0.9365   3.7805   4.6794
     5.7405   6.3691   6.6074   6.8686  10.6814  11.3979  12.1840  13.4336

          k = 0.3898 0.3898 0.0000 (  7700 PWs)   bands (ev):

    -9.7192  -9.6915  -8.0088  -8.0069  -7.9617  -7.9338  -7.9150  -7.9083
    -7.8924  -7.8807  -7.2875  -7.1186   0.0452   0.1812   4.6530   4.9803
     5.9434   6.5683   6.5891   7.0162   9.5859   9.6976  12.9349  13.1864

          k = 0.3898 0.3898 0.1564 (  7704 PWs)   bands (ev):

    -9.7197  -9.6911  -8.0044  -7.9983  -7.9617  -7.9346  -7.9287  -7.9171
    -7.9028  -7.9013  -7.2534  -7.0914   0.0470   0.2294   4.3632   4.8190
     6.0289   6.4282   6.6158   7.0160   9.9984  10.0320  12.7996  13.3036

          k = 0.3898 0.3898 0.3128 (  7706 PWs)   bands (ev):

    -9.7205  -9.6906  -8.0061  -7.9795  -7.9628  -7.9396  -7.9395  -7.9330
    -7.9271  -7.9207  -7.2026  -7.0500   0.0562   0.3044   4.0165   4.5978
     5.9215   6.2730   6.6668   7.0157  10.9470  11.0730  12.1410  13.2090

     the Fermi energy is     8.4460 ev

!    total energy              =   -1824.47662027 Ry
     Harris-Foulkes estimate   =   -1824.47662028 Ry
     estimated scf accuracy    <          1.6E-10 Ry

     total all-electron energy =    -83829.227335 Ry

     The total energy is the sum of the following terms:

     one-electron contribution =    -109.53411870 Ry
     hartree contribution      =      86.71380708 Ry
     xc contribution           =    -103.57680620 Ry
     ewald contribution        =    -222.13347741 Ry
     one-center paw contrib.   =   -1475.94602504 Ry
     smearing contrib. (-TS)   =       0.00000000 Ry

     convergence has been achieved in  28 iterations

     Forces acting on atoms (cartesian axes, Ry/au):

     atom    1 type  1   force =     0.00000000    0.00000000   -0.01319092
     atom    2 type  1   force =     0.00000000    0.00000000    0.01319092
     atom    3 type  2   force =     0.00000000    0.00000000    0.00000000
     atom    4 type  2   force =     0.00000000    0.00000000    0.00000000

     Total force =     0.018655     Total SCF correction =     0.000002


     Computing stress (Cartesian axis) and pressure

          total   stress  (Ry/bohr**3)                   (kbar)     P=       -3.42
  -0.00002769   0.00000000   0.00000000           -4.07        0.00        0.00
   0.00000000  -0.00002769   0.00000000            0.00       -4.07        0.00
   0.00000000   0.00000000  -0.00001435            0.00        0.00       -2.11


     number of scf cycles    =   4
     number of bfgs steps    =   3

     enthalpy old            =   -1824.4754710121 Ry
     enthalpy new            =   -1824.4766202743 Ry

     CASE: enthalpy_new < enthalpy_old

     new trust radius        =       0.0304829195 bohr
     new conv_thr            =       0.0000000011 Ry

     new unit-cell volume =    577.04994 a.u.^3 (    85.50998 Ang^3 )
     density =      8.66871 g/cm^3

CELL_PARAMETERS (alat=  7.51052754)
   1.031030744   0.000000000   0.000000000
   0.000000000   1.031030744   0.000000000
   0.000000000   0.000000000   1.281323640

ATOMIC_POSITIONS (crystal)
Pb            0.0000000000        0.5000000000        0.2333276591
Pb            0.5000000000        0.0000000000        0.7666723409
O             0.0000000000        0.0000000000       -0.0000000000
O             0.5000000000        0.5000000000        0.0000000000



     Writing output data file ./output.save/
     NEW-OLD atomic charge density approx. for the potential
     extrapolated charge   40.46318, renormalised to   40.00000

     total cpu time spent up to now is     2214.8 secs

     Self-consistent Calculation

     iteration #  1     ecut=    90.00 Ry     beta= 0.70
     Davidson diagonalization with overlap
     ethr =  1.00E-06,  avg # of iterations =  9.1

     total cpu time spent up to now is     2260.7 secs

     total energy              =   -1824.41702630 Ry
     Harris-Foulkes estimate   =   -1823.27690901 Ry
     estimated scf accuracy    <       0.05925793 Ry

     iteration #  2     ecut=    90.00 Ry     beta= 0.70
     Davidson diagonalization with overlap
     ethr =  1.48E-04,  avg # of iterations =  4.0

     total cpu time spent up to now is     2291.9 secs

     total energy              =   -1824.44552705 Ry
     Harris-Foulkes estimate   =   -1824.55109288 Ry
     estimated scf accuracy    <       0.34799028 Ry

     iteration #  3     ecut=    90.00 Ry     beta= 0.70
     Davidson diagonalization with overlap
     ethr =  1.48E-04,  avg # of iterations =  3.0

     total cpu time spent up to now is     2310.2 secs

     total energy              =   -1824.47898121 Ry
     Harris-Foulkes estimate   =   -1824.48190948 Ry
     estimated scf accuracy    <       0.03071027 Ry

     iteration #  4     ecut=    90.00 Ry     beta= 0.70
     Davidson diagonalization with overlap
     ethr =  7.68E-05,  avg # of iterations =  1.0

     total cpu time spent up to now is     2324.4 secs

     total energy              =   -1824.47876297 Ry
     Harris-Foulkes estimate   =   -1824.47967956 Ry
     estimated scf accuracy    <       0.02090116 Ry

     iteration #  5     ecut=    90.00 Ry     beta= 0.70
     Davidson diagonalization with overlap
     ethr =  5.23E-05,  avg # of iterations =  1.0

     total cpu time spent up to now is     2339.6 secs

     total energy              =   -1824.47833660 Ry
     Harris-Foulkes estimate   =   -1824.47907882 Ry
     estimated scf accuracy    <       0.01630804 Ry

     iteration #  6     ecut=    90.00 Ry     beta= 0.70
     Davidson diagonalization with overlap
     ethr =  4.08E-05,  avg # of iterations =  1.0

     total cpu time spent up to now is     2354.7 secs

     total energy              =   -1824.47623839 Ry
     Harris-Foulkes estimate   =   -1824.47853234 Ry
     estimated scf accuracy    <       0.01236109 Ry

     iteration #  7     ecut=    90.00 Ry     beta= 0.70
     Davidson diagonalization with overlap
     ethr =  3.09E-05,  avg # of iterations =  1.1

     total cpu time spent up to now is     2368.2 secs

     total energy              =   -1824.47602312 Ry
     Harris-Foulkes estimate   =   -1824.47684075 Ry
     estimated scf accuracy    <       0.00281561 Ry

     iteration #  8     ecut=    90.00 Ry     beta= 0.70
     Davidson diagonalization with overlap
     ethr =  7.04E-06,  avg # of iterations =  3.4

     total cpu time spent up to now is     2390.4 secs

     total energy              =   -1824.47705330 Ry
     Harris-Foulkes estimate   =   -1824.47713333 Ry
     estimated scf accuracy    <       0.00046365 Ry

     iteration #  9     ecut=    90.00 Ry     beta= 0.70
     Davidson diagonalization with overlap
     ethr =  1.16E-06,  avg # of iterations =  2.3

     total cpu time spent up to now is     2405.6 secs

     total energy              =   -1824.47713697 Ry
     Harris-Foulkes estimate   =   -1824.47710196 Ry
     estimated scf accuracy    <       0.00018260 Ry

     iteration # 10     ecut=    90.00 Ry     beta= 0.70
     Davidson diagonalization with overlap
     ethr =  4.56E-07,  avg # of iterations =  1.7

     total cpu time spent up to now is     2419.6 secs

     total energy              =   -1824.47714189 Ry
     Harris-Foulkes estimate   =   -1824.47714609 Ry
     estimated scf accuracy    <       0.00037851 Ry

     iteration # 11     ecut=    90.00 Ry     beta= 0.70
     Davidson diagonalization with overlap
     ethr =  4.56E-07,  avg # of iterations =  1.1

     total cpu time spent up to now is     2433.1 secs

     total energy              =   -1824.47702914 Ry
     Harris-Foulkes estimate   =   -1824.47714790 Ry
     estimated scf accuracy    <       0.00040540 Ry

     iteration # 12     ecut=    90.00 Ry     beta= 0.70
     Davidson diagonalization with overlap
     ethr =  4.56E-07,  avg # of iterations =  3.7

     total cpu time spent up to now is     2453.1 secs

     total energy              =   -1824.47713419 Ry
     Harris-Foulkes estimate   =   -1824.47714169 Ry
     estimated scf accuracy    <       0.00029703 Ry

     iteration # 13     ecut=    90.00 Ry     beta= 0.70
     Davidson diagonalization with overlap
     ethr =  4.56E-07,  avg # of iterations =  1.0

     total cpu time spent up to now is     2466.8 secs

     total energy              =   -1824.47706360 Ry
     Harris-Foulkes estimate   =   -1824.47713469 Ry
     estimated scf accuracy    <       0.00026979 Ry

     iteration # 14     ecut=    90.00 Ry     beta= 0.70
     Davidson diagonalization with overlap
     ethr =  4.56E-07,  avg # of iterations =  2.0

     total cpu time spent up to now is     2480.6 secs

     total energy              =   -1824.47707113 Ry
     Harris-Foulkes estimate   =   -1824.47707617 Ry
     estimated scf accuracy    <       0.00002583 Ry

     iteration # 15     ecut=    90.00 Ry     beta= 0.70
     Davidson diagonalization with overlap
     ethr =  6.46E-08,  avg # of iterations =  3.0

     total cpu time spent up to now is     2498.7 secs

     total energy              =   -1824.47708543 Ry
     Harris-Foulkes estimate   =   -1824.47708573 Ry
     estimated scf accuracy    <       0.00000796 Ry

     iteration # 16     ecut=    90.00 Ry     beta= 0.70
     Davidson diagonalization with overlap
     ethr =  1.99E-08,  avg # of iterations =  1.1

     total cpu time spent up to now is     2512.9 secs

     total energy              =   -1824.47708540 Ry
     Harris-Foulkes estimate   =   -1824.47708557 Ry
     estimated scf accuracy    <       0.00000735 Ry

     iteration # 17     ecut=    90.00 Ry     beta= 0.70
     Davidson diagonalization with overlap
     ethr =  1.84E-08,  avg # of iterations =  1.0

     total cpu time spent up to now is     2526.9 secs

     total energy              =   -1824.47708502 Ry
     Harris-Foulkes estimate   =   -1824.47708544 Ry
     estimated scf accuracy    <       0.00000610 Ry

     iteration # 18     ecut=    90.00 Ry     beta= 0.70
     Davidson diagonalization with overlap
     ethr =  1.53E-08,  avg # of iterations =  1.0

     total cpu time spent up to now is     2540.4 secs

     total energy              =   -1824.47708502 Ry
     Harris-Foulkes estimate   =   -1824.47708505 Ry
     estimated scf accuracy    <       0.00000357 Ry

     iteration # 19     ecut=    90.00 Ry     beta= 0.70
     Davidson diagonalization with overlap
     ethr =  8.93E-09,  avg # of iterations =  1.0

     total cpu time spent up to now is     2554.4 secs

     total energy              =   -1824.47708478 Ry
     Harris-Foulkes estimate   =   -1824.47708504 Ry
     estimated scf accuracy    <       0.00000324 Ry

     iteration # 20     ecut=    90.00 Ry     beta= 0.70
     Davidson diagonalization with overlap
     ethr =  8.11E-09,  avg # of iterations =  1.0

     total cpu time spent up to now is     2568.0 secs

     total energy              =   -1824.47708472 Ry
     Harris-Foulkes estimate   =   -1824.47708481 Ry
     estimated scf accuracy    <       0.00000179 Ry

     iteration # 21     ecut=    90.00 Ry     beta= 0.70
     Davidson diagonalization with overlap
     ethr =  4.46E-09,  avg # of iterations =  1.0

     total cpu time spent up to now is     2582.5 secs

     total energy              =   -1824.47708458 Ry
     Harris-Foulkes estimate   =   -1824.47708475 Ry
     estimated scf accuracy    <       0.00000085 Ry

     iteration # 22     ecut=    90.00 Ry     beta= 0.70
     Davidson diagonalization with overlap
     ethr =  2.12E-09,  avg # of iterations =  1.4

     total cpu time spent up to now is     2600.7 secs

     total energy              =   -1824.47708460 Ry
     Harris-Foulkes estimate   =   -1824.47708463 Ry
     estimated scf accuracy    <       0.00000011 Ry

     iteration # 23     ecut=    90.00 Ry     beta= 0.70
     Davidson diagonalization with overlap
     ethr =  2.77E-10,  avg # of iterations =  4.0

     total cpu time spent up to now is     2623.2 secs

     total energy              =   -1824.47708470 Ry
     Harris-Foulkes estimate   =   -1824.47708470 Ry
     estimated scf accuracy    <       0.00000011 Ry

     iteration # 24     ecut=    90.00 Ry     beta= 0.70
     Davidson diagonalization with overlap
[...]

     celldm(1)=   7.510528  celldm(2)=   0.000000  celldm(3)=   0.000000
     celldm(4)=   0.000000  celldm(5)=   0.000000  celldm(6)=   0.000000

     crystal axes: (cart. coord. in units of alat)
               a(1) = (   1.023018   0.000000   0.000000 )  
               a(2) = (   0.000000   1.023018   0.000000 )  
               a(3) = (   0.000000   0.000000   1.398042 )  

     reciprocal axes: (cart. coord. in units 2 pi/alat)
               b(1) = (  0.977500  0.000000  0.000000 )  
               b(2) = (  0.000000  0.977500  0.000000 )  
               b(3) = (  0.000000  0.000000  0.715286 )  


     PseudoPot. # 1 for Pb read from file:
     ./Pb.pbe-dn-kjpaw_psl.0.2.2.UPF
     MD5 check sum: f59221ed870a8203cfe6076f2d6248d0
     Pseudo is Projector augmented-wave + core cor, Zval = 14.0
     Generated using "atomic" code by A. Dal Corso v.5.0.2 svn rev. 9415
     Shape of augmentation charge: PSQ
     Using radial grid of 1281 points,  6 beta functions with: 
                l(1) =   0
                l(2) =   0
                l(3) =   1
                l(4) =   1
                l(5) =   2
                l(6) =   2
     Q(r) pseudized with 0 coefficients 


     PseudoPot. # 2 for O  read from file:
     ./O.pbe-n-kjpaw_psl.0.1.UPF
     MD5 check sum: 833c495a5d0f9b75bf046115549bffff
     Pseudo is Projector augmented-wave + core cor, Zval =  6.0
     Generated using "atomic" code by A. Dal Corso v.6.3
     Shape of augmentation charge: BESSEL
     Using radial grid of 1095 points,  4 beta functions with: 
                l(1) =   0
                l(2) =   0
                l(3) =   1
                l(4) =   1
     Q(r) pseudized with 0 coefficients 


     atomic species   valence    mass     pseudopotential
        Pb            14.00   207.20000     Pb( 1.00)
        O              6.00    15.99900     O ( 1.00)

     16 Sym. Ops., with inversion, found ( 8 have fractional translation)



   Cartesian axes

     site n.     atom                  positions (alat units)
         1           Pb  tau(   1) = (   0.0000000   0.5115091   0.2998217  )
         2           Pb  tau(   2) = (   0.5115091   0.0000000   1.0982205  )
         3           O   tau(   3) = (   0.0000000   0.0000000  -0.0000000  )
         4           O   tau(   4) = (   0.5115091   0.5115091   0.0000000  )

     number of k points=    18  Marzari-Vanderbilt smearing, width (Ry)=  0.0050
                       cart. coord. in units 2pi/alat
        k(    1) = (   0.0000000   0.0000000   0.0000000), wk =   0.0160000
        k(    2) = (   0.0000000   0.0000000   0.1430572), wk =   0.0320000
        k(    3) = (   0.0000000   0.0000000   0.2861144), wk =   0.0320000
        k(    4) = (   0.0000000   0.1954999   0.0000000), wk =   0.0640000
        k(    5) = (   0.0000000   0.1954999   0.1430572), wk =   0.1280000
        k(    6) = (   0.0000000   0.1954999   0.2861144), wk =   0.1280000
        k(    7) = (   0.0000000   0.3909999   0.0000000), wk =   0.0640000
        k(    8) = (   0.0000000   0.3909999   0.1430572), wk =   0.1280000
        k(    9) = (   0.0000000   0.3909999   0.2861144), wk =   0.1280000
        k(   10) = (   0.1954999   0.1954999   0.0000000), wk =   0.0640000
        k(   11) = (   0.1954999   0.1954999   0.1430572), wk =   0.1280000
        k(   12) = (   0.1954999   0.1954999   0.2861144), wk =   0.1280000
        k(   13) = (   0.1954999   0.3909999   0.0000000), wk =   0.1280000
        k(   14) = (   0.1954999   0.3909999   0.1430572), wk =   0.2560000
        k(   15) = (   0.1954999   0.3909999   0.2861144), wk =   0.2560000
        k(   16) = (   0.3909999   0.3909999   0.0000000), wk =   0.0640000
        k(   17) = (   0.3909999   0.3909999   0.1430572), wk =   0.1280000
        k(   18) = (   0.3909999   0.3909999   0.2861144), wk =   0.1280000

     Dense  grid:   282601 G-vectors     FFT dimensions: (  80,  80, 108)

     Smooth grid:    71411 G-vectors     FFT dimensions: (  48,  48,  64)

     Estimated max dynamical RAM per process >       1.10 GB

     Initial potential from superposition of free atoms

     starting charge   39.99529, renormalised to   40.00000
     Starting wfcs are   26 randomized atomic wfcs
     Checking if some PAW data can be deallocated... 

     total cpu time spent up to now is     7861.6 secs

     Self-consistent Calculation

     iteration #  1     ecut=    90.00 Ry     beta= 0.70
     Davidson diagonalization with overlap
     c_bands:  1 eigenvalues not converged
     c_bands:  1 eigenvalues not converged
     ethr =  1.00E-06,  avg # of iterations = 14.2

     total cpu time spent up to now is     7926.9 secs

     total energy              =   -1823.60796811 Ry
     Harris-Foulkes estimate   =   -1824.84676075 Ry
     estimated scf accuracy    <       1.51089114 Ry

     iteration #  2     ecut=    90.00 Ry     beta= 0.70
     Davidson diagonalization with overlap
     ethr =  3.78E-03,  avg # of iterations =  4.3

     total cpu time spent up to now is     7948.5 secs

     total energy              =   -1822.49408548 Ry
     Harris-Foulkes estimate   =   -1826.08792941 Ry
     estimated scf accuracy    <      11.70566264 Ry

     iteration #  3     ecut=    90.00 Ry     beta= 0.70
     Davidson diagonalization with overlap
     ethr =  3.78E-03,  avg # of iterations =  3.4

     total cpu time spent up to now is     7969.2 secs

     total energy              =   -1824.48136787 Ry
     Harris-Foulkes estimate   =   -1824.51478527 Ry
     estimated scf accuracy    <       0.16929652 Ry

     iteration #  4     ecut=    90.00 Ry     beta= 0.70
     Davidson diagonalization with overlap
     ethr =  4.23E-04,  avg # of iterations =  1.9

     total cpu time spent up to now is     7985.7 secs

     total energy              =   -1824.46472351 Ry
     Harris-Foulkes estimate   =   -1824.49012556 Ry
     estimated scf accuracy    <       0.05928610 Ry

     iteration #  5     ecut=    90.00 Ry     beta= 0.70
     Davidson diagonalization with overlap
     ethr =  1.48E-04,  avg # of iterations =  2.3

     total cpu time spent up to now is     8003.1 secs

     total energy              =   -1824.47796199 Ry
     Harris-Foulkes estimate   =   -1824.47909861 Ry
     estimated scf accuracy    <       0.00417062 Ry

     iteration #  6     ecut=    90.00 Ry     beta= 0.70
     Davidson diagonalization with overlap
     ethr =  1.04E-05,  avg # of iterations =  4.6

     total cpu time spent up to now is     8023.9 secs

     total energy              =   -1824.47908917 Ry
     Harris-Foulkes estimate   =   -1824.47911435 Ry
     estimated scf accuracy    <       0.00037554 Ry

     iteration #  7     ecut=    90.00 Ry     beta= 0.70
     Davidson diagonalization with overlap
     ethr =  9.39E-07,  avg # of iterations =  4.5

     total cpu time spent up to now is     8042.6 secs

     total energy              =   -1824.47902040 Ry
     Harris-Foulkes estimate   =   -1824.47915810 Ry
     estimated scf accuracy    <       0.00035561 Ry

     iteration #  8     ecut=    90.00 Ry     beta= 0.70
     Davidson diagonalization with overlap
     ethr =  8.89E-07,  avg # of iterations =  2.0

     total cpu time spent up to now is     8059.2 secs

     total energy              =   -1824.47909016 Ry
     Harris-Foulkes estimate   =   -1824.47909243 Ry
     estimated scf accuracy    <       0.00000699 Ry

     iteration #  9     ecut=    90.00 Ry     beta= 0.70
     Davidson diagonalization with overlap
     ethr =  1.75E-08,  avg # of iterations =  4.4

     total cpu time spent up to now is     8086.1 secs

     total energy              =   -1824.47909870 Ry
     Harris-Foulkes estimate   =   -1824.47909871 Ry
     estimated scf accuracy    <       0.00000041 Ry

     iteration # 10     ecut=    90.00 Ry     beta= 0.70
     Davidson diagonalization with overlap
     ethr =  1.03E-09,  avg # of iterations =  3.3

     total cpu time spent up to now is     8103.8 secs

     total energy              =   -1824.47909857 Ry
     Harris-Foulkes estimate   =   -1824.47909874 Ry
     estimated scf accuracy    <       0.00000040 Ry

     iteration # 11     ecut=    90.00 Ry     beta= 0.70
     Davidson diagonalization with overlap
     ethr =  9.92E-10,  avg # of iterations =  2.3

     total cpu time spent up to now is     8121.4 secs

     total energy              =   -1824.47909867 Ry
     Harris-Foulkes estimate   =   -1824.47909867 Ry
     estimated scf accuracy    <       0.00000012 Ry

     iteration # 12     ecut=    90.00 Ry     beta= 0.70
     Davidson diagonalization with overlap
     ethr =  3.02E-10,  avg # of iterations =  2.4

     total cpu time spent up to now is     8137.7 secs

     total energy              =   -1824.47909868 Ry
     Harris-Foulkes estimate   =   -1824.47909869 Ry
     estimated scf accuracy    <       0.00000012 Ry

     iteration # 13     ecut=    90.00 Ry     beta= 0.70
     Davidson diagonalization with overlap
     ethr =  3.02E-10,  avg # of iterations =  1.0

     total cpu time spent up to now is     8153.1 secs

     total energy              =   -1824.47909867 Ry
     Harris-Foulkes estimate   =   -1824.47909868 Ry
     estimated scf accuracy    <       0.00000009 Ry

     iteration # 14     ecut=    90.00 Ry     beta= 0.70
     Davidson diagonalization with overlap
     ethr =  2.26E-10,  avg # of iterations =  1.0

     total cpu time spent up to now is     8169.0 secs

     total energy              =   -1824.47909868 Ry
     Harris-Foulkes estimate   =   -1824.47909868 Ry
     estimated scf accuracy    <       0.00000002 Ry

     iteration # 15     ecut=    90.00 Ry     beta= 0.70
     Davidson diagonalization with overlap
     ethr =  4.77E-11,  avg # of iterations =  2.1

     total cpu time spent up to now is     8185.6 secs

     total energy              =   -1824.47909868 Ry
     Harris-Foulkes estimate   =   -1824.47909868 Ry
     estimated scf accuracy    <          4.6E-09 Ry

     iteration # 16     ecut=    90.00 Ry     beta= 0.70
     Davidson diagonalization with overlap
     ethr =  1.14E-11,  avg # of iterations =  2.8

     total cpu time spent up to now is     8202.4 secs

     total energy              =   -1824.47909868 Ry
     Harris-Foulkes estimate   =   -1824.47909868 Ry
     estimated scf accuracy    <          2.7E-09 Ry

     iteration # 17     ecut=    90.00 Ry     beta= 0.70
     Davidson diagonalization with overlap
     ethr =  6.82E-12,  avg # of iterations =  2.8

     total cpu time spent up to now is     8219.9 secs

     End of self-consistent calculation

          k = 0.0000 0.0000 0.0000 (  8947 PWs)   bands (ev):

   -10.9676 -10.5928  -8.9919  -8.9919  -8.9470  -8.9361  -8.8703  -8.8337
    -8.8337  -8.8236  -8.8016  -7.4966  -0.2771   0.7618   3.0450   3.0450
     5.4490   5.4703   5.4703   6.8837   8.7891  11.4154  12.8099  12.8099

          k = 0.0000 0.0000 0.1431 (  8980 PWs)   bands (ev):

   -10.9653 -10.5913  -8.9857  -8.9857  -8.9433  -8.9391  -8.8681  -8.8407
    -8.8407  -8.8238  -8.8038  -7.4953  -0.6349   1.2682   3.0666   3.0666
     5.4422   5.4650   5.4650   6.6641   8.7095  11.4277  11.9597  11.9597

          k = 0.0000 0.0000 0.2861 (  8936 PWs)   bands (ev):

   -10.9615 -10.5890  -8.9742  -8.9742  -8.9439  -8.9372  -8.8641  -8.8535
    -8.8535  -8.8242  -8.8078  -7.4932  -0.9804   1.8969   3.1024   3.1024
     5.4313   5.4557   5.4557   6.2427   8.6794  11.2002  11.4424  11.4424

          k = 0.0000 0.1955 0.0000 (  8951 PWs)   bands (ev):

   -10.9085 -10.6123  -8.9834  -8.9720  -8.9265  -8.9150  -8.8942  -8.8474
    -8.8252  -8.8086  -8.7069  -7.6033  -0.3415   0.6401   3.1335   3.2616
     4.8873   5.2202   5.3472   6.8301   9.6964  11.0098  11.8622  12.1739

          k = 0.0000 0.1955 0.1431 (  8957 PWs)   bands (ev):

   -10.9075 -10.6115  -8.9804  -8.9677  -8.9226  -8.9170  -8.8975  -8.8510
    -8.8273  -8.8067  -8.7068  -7.6020  -0.5975   0.9635   3.1032   3.2796
     4.9536   5.2158   5.3931   6.6736   9.5673  10.4069  12.2505  12.3744

          k = 0.0000 0.1955 0.2861 (  8949 PWs)   bands (ev):

   -10.9060 -10.6103  -8.9744  -8.9608  -8.9204  -8.9140  -8.9056  -8.8592
    -8.8253  -8.8075  -8.7063  -7.6000  -0.8711   1.3676   3.0224   3.3093
     5.0429   5.2083   5.6236   6.2865   9.4421   9.8536  11.7840  12.6165

          k = 0.0000 0.3910 0.0000 (  8924 PWs)   bands (ev):

   -10.7871 -10.6786  -8.9618  -8.9317  -8.9313  -8.9016  -8.8713  -8.8394
    -8.8216  -8.8190  -8.3900  -7.9389  -0.2861   0.1645   3.6176   3.8407
     4.4160   4.5865   5.1938   6.1183  10.0831  10.1377  12.0973  12.8053

          k = 0.0000 0.3910 0.1431 (  8936 PWs)   bands (ev):

   -10.7881 -10.6794  -8.9652  -8.9374  -8.9319  -8.9038  -8.8656  -8.8375
    -8.8190  -8.8121  -8.3879  -7.9371  -0.3747   0.2363   3.4922   3.8500
     4.3521   4.5869   5.4142   6.1576   9.8387  10.1362  12.3663  13.0187

          k = 0.0000 0.3910 0.2861 (  8938 PWs)   bands (ev):

   -10.7898 -10.6807  -8.9695  -8.9473  -8.9322  -8.9065  -8.8563  -8.8357
    -8.8105  -8.8063  -8.3843  -7.9341  -0.4874   0.3233   3.3275   3.8652
     4.2521   4.5874   5.8129   6.1423   9.5487  10.0667  12.7204  12.9098

          k = 0.1955 0.1955 0.0000 (  8949 PWs)   bands (ev):

   -10.8607 -10.6270  -8.9716  -8.9514  -8.9108  -8.9067  -8.8842  -8.8505
    -8.8238  -8.8139  -8.6142  -7.6779  -0.4773   0.4264   2.9485   3.8663
     4.6099   4.7009   5.7955   6.6898  10.1280  10.9431  11.2800  11.6453

          k = 0.1955 0.1955 0.1431 (  8929 PWs)   bands (ev):

   -10.8605 -10.6265  -8.9648  -8.9548  -8.9089  -8.9082  -8.8819  -8.8540
    -8.8311  -8.8125  -8.6078  -7.6757  -0.6450   0.6247   2.8381   3.8916
     4.6628   4.8516   5.7961   6.5383  10.0497  10.3889  10.9918  12.5009

          k = 0.1955 0.1955 0.2861 (  8936 PWs)   bands (ev):

   -10.8602 -10.6257  -8.9598  -8.9510  -8.9143  -8.9013  -8.8832  -8.8568
    -8.8441  -8.8111  -8.5976  -7.6720  -0.8439   0.8881   2.6681   3.9380
     4.5964   5.3207   5.7971   6.2082   9.6945  10.0100  11.0650  13.1452

          k = 0.1955 0.3910 0.0000 (  8908 PWs)   bands (ev):

   -10.7647 -10.6793  -8.9398  -8.9193  -8.9132  -8.8929  -8.8633  -8.8355
    -8.8186  -8.8185  -8.3287  -7.9403  -0.5521  -0.1537   3.3182   4.0481
     4.6505   4.8262   5.6289   6.0303   9.8222   9.8849  12.0245  12.1485

          k = 0.1955 0.3910 0.1431 (  8929 PWs)   bands (ev):

   -10.7654 -10.6795  -8.9420  -8.9248  -8.9111  -8.8909  -8.8619  -8.8382
    -8.8211  -8.8156  -8.3207  -7.9354  -0.5982  -0.1046   3.1497   3.9540
     4.6882   5.0533   5.6356   6.0080   9.7426  10.0483  11.6154  12.5434

          k = 0.1955 0.3910 0.2861 (  8930 PWs)   bands (ev):

   -10.7665 -10.6799  -8.9471  -8.9268  -8.9142  -8.8894  -8.8558  -8.8384
    -8.8256  -8.8157  -8.3079  -7.9274  -0.6606  -0.0360   2.9385   3.8245
     4.7318   5.3450   5.6760   5.9469   9.6840  10.3006  11.4704  12.5511

          k = 0.3910 0.3910 0.0000 (  8940 PWs)   bands (ev):

   -10.7248 -10.6937  -8.9185  -8.9126  -8.8733  -8.8534  -8.8400  -8.8297
    -8.8134  -8.8115  -8.1704  -8.0044  -0.9126  -0.7437   3.5426   3.9154
     5.0564   5.6272   5.6347   6.0423   8.9856   9.0589  11.9476  12.2330

          k = 0.3910 0.3910 0.1431 (  8917 PWs)   bands (ev):

   -10.7247 -10.6933  -8.9169  -8.9080  -8.8720  -8.8544  -8.8442  -8.8346
    -8.8208  -8.8191  -8.1567  -7.9936  -0.9144  -0.7223   3.3985   3.8403
     5.1092   5.5470   5.6489   6.0422   9.2315   9.4026  11.7268  12.4039

          k = 0.3910 0.3910 0.2861 (  8938 PWs)   bands (ev):

   -10.7245 -10.6926  -8.9160  -8.8994  -8.8676  -8.8586  -8.8480  -8.8425
    -8.8348  -8.8302  -8.1354  -7.9765  -0.9157  -0.6889   3.2030   3.7287
     5.1154   5.4409   5.6775   6.0420   9.9591  10.2952  11.0453  11.7290

     the Fermi energy is     6.9124 ev

!    total energy              =   -1824.47909868 Ry
     Harris-Foulkes estimate   =   -1824.47909868 Ry
     estimated scf accuracy    <          8.4E-11 Ry

     total all-electron energy =    -83829.229813 Ry

     The total energy is the sum of the following terms:

     one-electron contribution =    -139.15535432 Ry
     hartree contribution      =     100.14892422 Ry
     xc contribution           =    -103.58208637 Ry
     ewald contribution        =    -205.94502502 Ry
     one-center paw contrib.   =   -1475.94559946 Ry
     smearing contrib. (-TS)   =       0.00004226 Ry

     convergence has been achieved in  17 iterations

     Forces acting on atoms (cartesian axes, Ry/au):

     atom    1 type  1   force =     0.00000000    0.00000000    0.00009078
     atom    2 type  1   force =     0.00000000    0.00000000   -0.00009078
     atom    3 type  2   force =     0.00000000    0.00000000    0.00000000
     atom    4 type  2   force =     0.00000000    0.00000000    0.00000000

     Total force =     0.000128     Total SCF correction =     0.000014
     SCF correction compared to forces is large: reduce conv_thr to get better values


     Computing stress (Cartesian axis) and pressure

          total   stress  (Ry/bohr**3)                   (kbar)     P=        0.65
   0.00000431   0.00000000   0.00000000            0.63        0.00        0.00
   0.00000000   0.00000431   0.00000000            0.00        0.63        0.00
   0.00000000   0.00000000   0.00000464            0.00        0.00        0.68


     Writing output data file ./output.save/

     init_run     :     87.78s CPU     89.42s WALL (       2 calls)
     electrons    :   6001.10s CPU   6290.00s WALL (      15 calls)
     update_pot   :    588.61s CPU    591.56s WALL (      13 calls)
     forces       :    412.87s CPU    419.56s WALL (      15 calls)
     stress       :    867.81s CPU    886.33s WALL (      15 calls)

     Called by init_run:
     wfcinit      :      9.12s CPU      9.27s WALL (       2 calls)
     potinit      :     25.64s CPU     26.12s WALL (       2 calls)
     hinit0       :     50.36s CPU     50.67s WALL (       2 calls)

     Called by electrons:
     c_bands      :   4130.81s CPU   4187.45s WALL (     346 calls)
     sum_band     :   1085.47s CPU   1196.81s WALL (     346 calls)
     v_of_rho     :    162.61s CPU    173.52s WALL (     361 calls)
     newd         :    408.71s CPU    520.74s WALL (     361 calls)
     PAW_pot      :    227.90s CPU    229.17s WALL (     374 calls)
     mix_rho      :     18.18s CPU     18.48s WALL (     346 calls)

     Called by c_bands:
     init_us_2    :     52.03s CPU     54.67s WALL (   13266 calls)
     cegterg      :   4022.50s CPU   4075.26s WALL (    6228 calls)

     Called by sum_band:
     sum_band:bec :      0.36s CPU      0.36s WALL (    6462 calls)
     addusdens    :    505.33s CPU    613.12s WALL (     346 calls)

     Called by *egterg:
     h_psi        :   2403.48s CPU   2433.33s WALL (   22026 calls)
     s_psi        :    367.26s CPU    376.01s WALL (   22026 calls)
     g_psi        :      9.64s CPU      9.74s WALL (   15762 calls)
     cdiaghg      :     32.77s CPU     33.16s WALL (   21756 calls)

     Called by h_psi:
     h_psi:calbec :    405.79s CPU    407.68s WALL (   22026 calls)
     vloc_psi     :   1600.95s CPU   1621.14s WALL (   22026 calls)
     add_vuspsi   :    375.03s CPU    376.83s WALL (   22026 calls)

     General routines
     calbec       :    600.30s CPU    603.06s WALL (   29838 calls)
     fft          :     62.12s CPU     62.67s WALL (    5051 calls)
     ffts         :      2.57s CPU      2.61s WALL (     707 calls)
     fftw         :   1680.87s CPU   1700.49s WALL (  939536 calls)
     interpolate  :      6.50s CPU      6.55s WALL (     361 calls)

     Parallel routines

     PWSCF        :      2h13m CPU      2h18m WALL


   This run was terminated on:  19:53:35   9May2021            

=------------------------------------------------------------------------------=
   JOB DONE.
=------------------------------------------------------------------------------=
